 Gaussian 09, Revision C.01,
 Gaussian 09:  EM64L-G09RevC.01 23-Sep-2011

 --------------------------------------------
 #B3LYP/6-31++G(d,p) opt scf=direct freq test
 --------------------------------------------

 Geom opt of No.11 candidate from the CEPDB database with SMILE code of
  [SiH2]1ccc2c1c(sc2-c1cnc(s1)-c1ccc[nH]1)-c1nccc2nsnc12, HPC, 20131227
 , Shuo Dai, Gaussian09
 ----------------------------------------------------------------------
 Charge =  0 Multiplicity = 1

 SCF Done:  E(RB3LYP) =  -2450.31339249     A.U. after   25 cycles
 SCF Done:  E(RB3LYP) =  -2450.35168409     A.U. after   15 cycles
 SCF Done:  E(RB3LYP) =  -2450.36464390     A.U. after   14 cycles
 SCF Done:  E(RB3LYP) =  -2450.36526284     A.U. after   13 cycles
 SCF Done:  E(RB3LYP) =  -2450.36535793     A.U. after   13 cycles
 SCF Done:  E(RB3LYP) =  -2450.36537628     A.U. after   12 cycles
 SCF Done:  E(RB3LYP) =  -2450.36538207     A.U. after   11 cycles
 SCF Done:  E(RB3LYP) =  -2450.36538823     A.U. after   12 cycles
 SCF Done:  E(RB3LYP) =  -2450.36539511     A.U. after   12 cycles
 SCF Done:  E(RB3LYP) =  -2450.36539379     A.U. after   12 cycles
 SCF Done:  E(RB3LYP) =  -2450.36582969     A.U. after   15 cycles
 SCF Done:  E(RB3LYP) =  -2450.36584818     A.U. after   13 cycles
 SCF Done:  E(RB3LYP) =  -2450.36585006     A.U. after   12 cycles
 SCF Done:  E(RB3LYP) =  -2450.36585115     A.U. after   11 cycles
 SCF Done:  E(RB3LYP) =  -2450.36585187     A.U. after   11 cycles
 SCF Done:  E(RB3LYP) =  -2450.36585226     A.U. after   11 cycles
 SCF Done:  E(RB3LYP) =  -2450.36585264     A.U. after   11 cycles
 SCF Done:  E(RB3LYP) =  -2450.36585273     A.U. after   10 cycles
 SCF Done:  E(RB3LYP) =  -2450.36585279     A.U. after    9 cycles
 Optimization completed.
    -- Stationary point found.
 Normal termination of Gaussian 09 at Sun Dec 29 03:14:30 2013.

 ----------------------------------------------------------------------
 #N Geom=AllCheck Guess=TCheck SCRF=Check Test GenChk RB3LYP/6-31++G(d,
 p) Freq
 ----------------------------------------------------------------------

 Geom opt of No.11 candidate from the CEPDB database with SMILE code of
  [SiH2]1ccc2c1c(sc2-c1cnc(s1)-c1ccc[nH]1)-c1nccc2nsnc12, HPC, 20131227
 , Shuo Dai, Gaussian09
 ----------------------------------------------------------------------
 Charge =  0 Multiplicity = 1

                         Standard orientation:
 ---------------------------------------------------------------------
 Center     Atomic      Atomic             Coordinates (Angstroms)
 Number     Number       Type             X           Y           Z
 ---------------------------------------------------------------------
      1         14           0        1.761275    3.513901    0.098144
      2          1           0        2.415128    4.000330   -1.141561
      3          1           0        2.552277    3.937236    1.279439
      4          6           0       -0.062835    4.000884    0.222552
      5          6           0       -0.841795    2.891065    0.242779
      6          6           0       -0.140539    1.598647    0.155242
      7          6           0        1.283567    1.702076    0.079505
      8          6           0        1.924192    0.485531    0.033690
      9         16           0        0.760182   -0.836352    0.062441
     10          6           0       -0.594867    0.283530    0.166260
     11          6           0       -1.934728   -0.253344    0.248107
     12          6           0       -2.338728   -1.485891    0.726043
     13          7           0       -3.667061   -1.777293    0.668759
     14          6           0       -4.358324   -0.790054    0.144774
     15         16           0       -3.363157    0.596395   -0.328800
     16          6           0       -5.788942   -0.811379   -0.029599
     17          6           0       -6.701450   -1.811701    0.297193
     18          6           0       -7.989287   -1.356680   -0.074102
     19          6           0       -7.842147   -0.091599   -0.619172
     20          7           0       -6.510322    0.229968   -0.587803
     21          1           0       -6.121981    1.095880   -0.929128
     22          6           0        3.368725    0.317977   -0.036642
     23          7           0        4.099728    1.426077   -0.066163
     24          6           0        5.461013    1.361567   -0.133282
     25          6           0        6.203620    0.204201   -0.176813
     26          6           0        5.474673   -1.013330   -0.148977
     27          7           0        5.963540   -2.262112   -0.182170
     28         16           0        4.666199   -3.270549   -0.126440
     29          7           0        3.449669   -2.167748   -0.058746
     30          6           0        4.030495   -0.964680   -0.077769
     31          1           0       -0.506756    4.989936    0.289703
     32          1           0       -1.924826    2.927590    0.329203
     33          1           0       -1.659232   -2.213406    1.155398
     34          1           0       -6.438511   -2.754758    0.752663
     35          1           0       -8.922778   -1.888703    0.041658
     36          1           0       -8.571738    0.595704   -1.020993
     37          1           0        5.958534    2.327526   -0.151718
     38          1           0        7.285728    0.212983   -0.229773
 ---------------------------------------------------------------------

 SCF Done:  E(RB3LYP) =  -2450.36585279     A.U. after    2 cycles

 The electronic state is 1-A.
 Alpha  occ. eigenvalues --  -88.99732 -88.93214 -88.92602 -66.13726 -14.40732
 Alpha  occ. eigenvalues --  -14.39790 -14.39111 -14.35826 -14.34889 -10.27634
 Alpha  occ. eigenvalues --  -10.27304 -10.26626 -10.26582 -10.25035 -10.24829
 Alpha  occ. eigenvalues --  -10.24716 -10.24205 -10.24075 -10.23562 -10.23472
 Alpha  occ. eigenvalues --  -10.22065 -10.21641 -10.21450 -10.19497 -10.19474
 Alpha  occ. eigenvalues --  -10.19386 -10.18684  -8.05041  -7.99171  -7.98384
 Alpha  occ. eigenvalues --   -6.01595  -6.01012  -6.00801  -5.95590  -5.95249
 Alpha  occ. eigenvalues --   -5.94856  -5.94844  -5.94445  -5.94067  -5.28368
 Alpha  occ. eigenvalues --   -3.64279  -3.64211  -3.64192  -1.04228  -1.00408
 Alpha  occ. eigenvalues --   -0.97556  -0.96654  -0.91511  -0.90017  -0.82708
 Alpha  occ. eigenvalues --   -0.81870  -0.81457  -0.79765  -0.79522  -0.78630
 Alpha  occ. eigenvalues --   -0.74690  -0.72061  -0.71684  -0.68575  -0.64857
 Alpha  occ. eigenvalues --   -0.64367  -0.63183  -0.61393  -0.60757  -0.59131
 Alpha  occ. eigenvalues --   -0.58532  -0.56713  -0.54574  -0.54200  -0.52879
 Alpha  occ. eigenvalues --   -0.51177  -0.50382  -0.48647  -0.48254  -0.47624
 Alpha  occ. eigenvalues --   -0.47501  -0.45527  -0.44698  -0.44446  -0.43849
 Alpha  occ. eigenvalues --   -0.42888  -0.42498  -0.42106  -0.41216  -0.40610
 Alpha  occ. eigenvalues --   -0.40247  -0.39981  -0.39432  -0.38949  -0.38702
 Alpha  occ. eigenvalues --   -0.36812  -0.35981  -0.35301  -0.34443  -0.33727
 Alpha  occ. eigenvalues --   -0.32286  -0.31595  -0.31398  -0.30860  -0.30059
 Alpha  occ. eigenvalues --   -0.29043  -0.28754  -0.28220  -0.27578  -0.26734
 Alpha  occ. eigenvalues --   -0.24362  -0.23653  -0.20180
 Alpha virt. eigenvalues --   -0.11876  -0.07747  -0.05198  -0.03887  -0.02231
 Alpha virt. eigenvalues --   -0.02132  -0.01801  -0.00743  -0.00306  -0.00046
 Alpha virt. eigenvalues --    0.00117   0.00607   0.00940   0.01161   0.01682

 Mulliken atomic charges:
              1
     1  Si   1.103293
     2  H   -0.117520
     3  H   -0.109613
     4  C   -0.336265
     5  C   -0.211395
     6  C    1.228835
     7  C   -0.507010
     8  C   -1.212025
     9  S    0.018887
    10  C   -0.371445
    11  C   -0.483677
    12  C    0.127253
    13  N   -0.121233
    14  C   -0.215609
    15  S    0.218140
    16  C   -0.294303
    17  C    0.351109
    18  C   -0.363740
    19  C    0.048038
    20  N   -0.218955
    21  H    0.321855
    22  C    0.144095
    23  N   -0.091647
    24  C    0.139135
    25  C   -0.440848
    26  C   -0.034728
    27  N   -0.406135
    28  S    0.867897
    29  N   -0.450765
    30  C    0.266796
    31  H    0.160839
    32  H    0.054634
    33  H    0.169930
    34  H    0.163031
    35  H    0.132003
    36  H    0.149532
    37  H    0.146588
    38  H    0.175025
 Sum of Mulliken atomic charges =  -0.00000

 Dipole moment (field-independent basis, Debye):
    X=             -1.0407    Y=              2.0545    Z=             -0.9505  Tot=              2.4915
 Quadrupole moment (field-independent basis, Debye-Ang):
   XX=           -158.3073   YY=           -177.5783   ZZ=           -188.6304
   XY=            -10.2505   XZ=              7.0559   YZ=             -2.6766

  Exact polarizability: 746.315  22.018 388.476   0.244 -11.353 173.145
 Approx polarizability:1068.526  50.604 736.881  -5.353 -38.432 294.491

                     1                      2                      3
                     A                      A                      A
 Frequencies --    18.7706                26.6516                32.6532
 Red. masses --     5.9745                 6.1577                 5.8231
 Frc consts  --     0.0012                 0.0026                 0.0037
 IR Inten    --     1.3017                 0.2757                 0.2310

                     4                      5                      6
                     A                      A                      A
 Frequencies --    36.5868                43.6283                62.7605
 Red. masses --     8.3491                 6.6071                 8.8540
 Frc consts  --     0.0066                 0.0074                 0.0205
 IR Inten    --     0.3010                 0.4461                 0.0570

                     7                      8                      9
                     A                      A                      A
 Frequencies --    73.2762               103.0364               126.8533
 Red. masses --     7.7549                 5.3487                 6.1849
 Frc consts  --     0.0245                 0.0335                 0.0586
 IR Inten    --     0.1263                 0.4831                 1.3033

                    10                     11                     12
                     A                      A                      A
 Frequencies --   137.9061               162.1522               178.3515
 Red. masses --     5.7322                10.5695                 6.9485
 Frc consts  --     0.0642                 0.1637                 0.1302
 IR Inten    --     0.1862                 0.6524                 0.5803

                    13                     14                     15
                     A                      A                      A
 Frequencies --   182.7265               188.4517               206.6884
 Red. masses --     6.6947                 6.6823                 9.5079
 Frc consts  --     0.1317                 0.1398                 0.2393
 IR Inten    --     1.4630                 1.0022                 0.0980

                    16                     17                     18
                     A                      A                      A
 Frequencies --   249.7008               274.7254               298.9923
 Red. masses --     6.4070                 6.5799                 4.8257
 Frc consts  --     0.2354                 0.2926                 0.2542
 IR Inten    --     1.6537                 3.4909                 2.0296

                    19                     20                     21
                     A                      A                      A
 Frequencies --   319.3364               340.9338               384.9717
 Red. masses --     5.4595                 4.4105                 8.7393
 Frc consts  --     0.3280                 0.3021                 0.7631
 IR Inten    --     2.1647                 1.1831                 3.9885

                    22                     23                     24
                     A                      A                      A
 Frequencies --   397.8747               415.4514               438.9001
 Red. masses --    11.8718                 4.1979                 6.8737
 Frc consts  --     1.1073                 0.4269                 0.7801
 IR Inten    --     8.0380                 2.9059                 1.5306

                    25                     26                     27
                     A                      A                      A
 Frequencies --   454.9935               468.8424               478.0001
 Red. masses --     8.2104                 1.7142                 5.3152
 Frc consts  --     1.0014                 0.2220                 0.7155
 IR Inten    --     8.7757                36.0910                17.4612

                    28                     29                     30
                     A                      A                      A
 Frequencies --   483.7753               518.0827               525.1480
 Red. masses --     4.7353                 5.6369                 9.0935
 Frc consts  --     0.6530                 0.8914                 1.4776
 IR Inten    --     9.3230                19.5780                 5.6936

                    31                     32                     33
                     A                      A                      A
 Frequencies --   535.9794               554.5583               565.1192
 Red. masses --     9.2531                 3.1352                 5.0487
 Frc consts  --     1.5661                 0.5681                 0.9500
 IR Inten    --    12.9355                 4.7761                 6.9410

                    34                     35                     36
                     A                      A                      A
 Frequencies --   608.7928               611.3456               615.3468
 Red. masses --     7.9138                 1.7913                 2.6834
 Frc consts  --     1.7281                 0.3945                 0.5987
 IR Inten    --     8.8154                 6.4529                 0.2831

                    37                     38                     39
                     A                      A                      A
 Frequencies --   618.3059               622.0766               634.0353
 Red. masses --     5.3193                 2.4750                 8.5467
 Frc consts  --     1.1982                 0.5643                 2.0243
 IR Inten    --     0.6400                42.0872                18.9859

                    40                     41                     42
                     A                      A                      A
 Frequencies --   672.0452               674.9416               677.7123
 Red. masses --     3.7587                 5.8536                 7.3658
 Frc consts  --     1.0002                 1.5711                 1.9933
 IR Inten    --     6.2266                 2.4597                 4.0430

                    43                     44                     45
                     A                      A                      A
 Frequencies --   719.0041               729.7443               736.7253
 Red. masses --     2.2141                 1.2258                 4.4959
 Frc consts  --     0.6744                 0.3846                 1.4377
 IR Inten    --    53.7053                83.3768                 9.2103

                    46                     47                     48
                     A                      A                      A
 Frequencies --   738.0278               743.6094               791.7053
 Red. masses --     2.0377                 3.1201                 2.8679
 Frc consts  --     0.6539                 1.0165                 1.0591
 IR Inten    --     6.8221                17.3766                21.1058

                    49                     50                     51
                     A                      A                      A
 Frequencies --   795.1634               806.4167               824.4592
 Red. masses --     3.0416                 6.9106                 1.5227
 Frc consts  --     1.1331                 2.6478                 0.6098
 IR Inten    --    28.3356                32.4871                28.2101

                    52                     53                     54
                     A                      A                      A
 Frequencies --   825.1784               829.4073               833.5230
 Red. masses --     1.3134                10.8662                 6.7708
 Frc consts  --     0.5269                 4.4042                 2.7716
 IR Inten    --    19.6007                10.9595                21.7971

                    55                     56                     57
                     A                      A                      A
 Frequencies --   855.8380               874.0061               880.1083
 Red. masses --     3.2751                 2.1697                 2.9519
 Frc consts  --     1.4134                 0.9765                 1.3472
 IR Inten    --    96.8184                13.3183                13.0827

                    58                     59                     60
                     A                      A                      A
 Frequencies --   888.7095               892.6343               897.5584
 Red. masses --     5.7681                 7.8641                 1.3335
 Frc consts  --     2.6841                 3.6919                 0.6330
 IR Inten    --     6.3516                56.5023                 1.1115

                    61                     62                     63
                     A                      A                      A
 Frequencies --   907.7595               933.6563               952.0043
 Red. masses --     5.7285                 8.2311                 1.0608
 Frc consts  --     2.7812                 4.2275                 0.5665
 IR Inten    --    35.9706                13.5931               127.9232

                    64                     65                     66
                     A                      A                      A
 Frequencies --   983.5986               993.9769              1013.2388
 Red. masses --     1.3558                 1.2953                 4.2372
 Frc consts  --     0.7728                 0.7540                 2.5630
 IR Inten    --     0.2670                 0.4912                22.8414

                    67                     68                     69
                     A                      A                      A
 Frequencies --  1026.3497              1058.9533              1084.1904
 Red. masses --     2.3330                 1.3217                 2.2644
 Frc consts  --     1.4480                 0.8732                 1.5682
 IR Inten    --    25.9863                78.2121                49.3350

                    70                     71                     72
                     A                      A                      A
 Frequencies --  1125.8357              1132.5473              1142.4945
 Red. masses --     1.2887                 2.3934                 1.5987
 Frc consts  --     0.9624                 1.8088                 1.2295
 IR Inten    --     2.5706                21.2720               125.8352

                    73                     74                     75
                     A                      A                      A
 Frequencies --  1146.0086              1198.4236              1242.2540
 Red. masses --     2.5157                 2.1457                 7.5720
 Frc consts  --     1.9466                 1.8157                 6.8847
 IR Inten    --     3.6019                84.6211                11.2772

                    76                     77                     78
                     A                      A                      A
 Frequencies --  1268.4721              1283.8716              1299.5846
 Red. masses --     3.0599                 1.5920                 2.0538
 Frc consts  --     2.9008                 1.5461                 2.0437
 IR Inten    --     5.7283                 1.0891                18.1222

                    79                     80                     81
                     A                      A                      A
 Frequencies --  1319.1420              1328.8224              1342.1437
 Red. masses --     4.2900                 3.3363                 3.1311
 Frc consts  --     4.3983                 3.4710                 3.3231
 IR Inten    --   154.0049               170.5486                32.5999

                    82                     83                     84
                     A                      A                      A
 Frequencies --  1356.0897              1370.4690              1381.8617
 Red. masses --     2.6192                 4.7747                10.3940
 Frc consts  --     2.8379                 5.2836                11.6940
 IR Inten    --     2.9727                 0.3679                51.8537

                    85                     86                     87
                     A                      A                      A
 Frequencies --  1436.7122              1439.2781              1456.7094
 Red. masses --     3.5732                 4.7312                 3.4201
 Frc consts  --     4.3456                 5.7744                 4.2760
 IR Inten    --    17.2634                 8.3629                30.6599

                    88                     89                     90
                     A                      A                      A
 Frequencies --  1470.8496              1485.5499              1489.4661
 Red. masses --     3.8500                 4.2450                 7.6494
 Frc consts  --     4.9073                 5.5195                 9.9986
 IR Inten    --     7.7092                30.6004               804.1102

                    91                     92                     93
                     A                      A                      A
 Frequencies --  1503.3668              1542.0874              1547.8254
 Red. masses --     7.4953                 6.3451                 4.7334
 Frc consts  --     9.9808                 8.8901                 6.6814
 IR Inten    --   321.2383                41.7425                45.6889

                    94                     95                     96
                     A                      A                      A
 Frequencies --  1562.8572              1585.6514              1610.8911
 Red. masses --     7.8378                 7.0464                 6.8504
 Frc consts  --    11.2793                10.4384                10.4737
 IR Inten    --    45.5101                18.9315                59.1862

                    97                     98                     99
                     A                      A                      A
 Frequencies --  1611.9165              2240.9730              2241.7823
 Red. masses --     4.6875                 1.0295                 1.0526
 Frc consts  --     7.1760                 3.0463                 3.1167
 IR Inten    --    94.0619               148.2906               108.4382

                   100                    101                    102
                     A                      A                      A
 Frequencies --  3177.1590              3187.6980              3200.8541
 Red. masses --     1.0858                 1.0899                 1.0964
 Frc consts  --     6.4580                 6.5251                 6.6184
 IR Inten    --     4.3028                33.8618                16.3961

                   103                    104                    105
                     A                      A                      A
 Frequencies --  3225.0098              3232.7427              3258.7240
 Red. masses --     1.0930                 1.0948                 1.0900
 Frc consts  --     6.6977                 6.7412                 6.8199
 IR Inten    --    12.3595                 3.3767                 8.5952

                   106                    107                    108
                     A                      A                      A
 Frequencies --  3277.6441              3284.2113              3669.9318
 Red. masses --     1.0965                 1.1038                 1.0810
 Frc consts  --     6.9406                 7.0143                 8.5777
 IR Inten    --     0.0539                 0.6147                44.6052

 - Thermochemistry -
 -------------------
 Temperature   298.150 Kelvin.  Pressure   1.00000 Atm.
 Atom     1 has atomic number 14 and mass  27.97693

 Molecular mass:   420.99459 amu.
 Principal axes and moments of inertia in atomic units:
                           1         2         3
     Eigenvalues --  5614.99655********************
           X            0.99996   0.00866   0.00057
           Y           -0.00866   0.99996  -0.00252
           Z           -0.00059   0.00252   1.00000
 This molecule is an asymmetric top.
 Rotational symmetry number  1.
 Warning -- assumption of classical behavior for rotation
           may cause significant error
 Rotational temperatures (Kelvin)      0.01543     0.00319     0.00267
 Rotational constants (GHZ):           0.32141     0.06652     0.05559
 Zero-point vibrational energy     665805.2 (Joules/Mol)
                                  159.13126 (Kcal/Mol)
 Warning -- explicit consideration of  37 degrees of freedom as
           vibrations may cause significant error
 Vibrational temperatures:     27.01    38.35    46.98    52.64    62.77
          (Kelvin)             90.30   105.43   148.25   182.51   198.42
                              233.30   256.61   262.90   271.14   297.38
                              359.26   395.27   430.18   459.45   490.53
                              553.89   572.45   597.74   631.48   654.63
                              674.56   687.73   696.04   745.40   755.57
                              771.15   797.88   813.08   875.92   879.59
                              885.35   889.60   895.03   912.23   966.92
                              971.09   975.08  1034.49  1049.94  1059.98
                             1061.86  1069.89  1139.09  1144.06  1160.25
                             1186.21  1187.25  1193.33  1199.25  1231.36
                             1257.50  1266.28  1278.65  1284.30  1291.38
                             1306.06  1343.32  1369.72  1415.18  1430.11
                             1457.82  1476.69  1523.60  1559.91  1619.82
                             1629.48  1643.79  1648.85  1724.26  1787.32
                             1825.05  1847.20  1869.81  1897.95  1911.88
                             1931.04  1951.11  1971.80  1988.19  2067.11
                             2070.80  2095.88  2116.22  2137.37  2143.01
                             2163.01  2218.72  2226.97  2248.60  2281.40
                             2317.71  2319.19  3224.26  3225.42  4571.22
                             4586.38  4605.31  4640.06  4651.19  4688.57
                             4715.79  4725.24  5280.21

 Zero-point correction=                           0.253592 (Hartree/Particle)
 Thermal correction to Energy=                    0.275958
 Thermal correction to Enthalpy=                  0.276902
 Thermal correction to Gibbs Free Energy=         0.198778
 Sum of electronic and zero-point Energies=          -2450.112261
 Sum of electronic and thermal Energies=             -2450.089895
 Sum of electronic and thermal Enthalpies=           -2450.088951
 Sum of electronic and thermal Free Energies=        -2450.167075

                     E (Thermal)             CV                S
                      KCal/Mol        Cal/Mol-Kelvin    Cal/Mol-Kelvin
 Total                  173.166             87.163            164.425
 Electronic               0.000              0.000              0.000
 Translational            0.889              2.981             44.003
 Rotational               0.889              2.981             36.846
 Vibrational            171.388             81.201             83.577
 Vibration     1          0.593              1.986              6.760
 Vibration     2          0.593              1.984              6.064
 Vibration     3          0.594              1.983              5.661
 Vibration     4          0.594              1.982              5.436
 Vibration     5          0.595              1.980              5.087
 Vibration     6          0.597              1.972              4.368
 Vibration     7          0.599              1.967              4.063
 Vibration     8          0.605              1.947              3.396
 Vibration     9          0.611              1.926              2.993
 Vibration    10          0.614              1.915              2.833
 Vibration    11          0.622              1.889              2.525
 Vibration    12          0.629              1.869              2.346
 Vibration    13          0.630              1.863              2.300
 Vibration    14          0.633              1.856              2.243
 Vibration    15          0.641              1.830              2.073
 Vibration    16          0.662              1.763              1.733
 Vibration    17          0.677              1.720              1.566
 Vibration    18          0.692              1.676              1.423
 Vibration    19          0.705              1.637              1.314
 Vibration    20          0.720              1.594              1.208
 Vibration    21          0.754              1.502              1.020
 Vibration    22          0.764              1.475              0.970
 Vibration    23          0.779              1.437              0.908
 Vibration    24          0.799              1.385              0.830
 Vibration    25          0.813              1.350              0.781
 Vibration    26          0.826              1.319              0.741
 Vibration    27          0.834              1.299              0.715
 Vibration    28          0.840              1.286              0.700
 Vibration    29          0.873              1.210              0.614
 Vibration    30          0.880              1.194              0.598
 Vibration    31          0.891              1.170              0.574
 Vibration    32          0.910              1.130              0.535
 Vibration    33          0.921              1.107              0.514
 Vibration    34          0.968              1.013              0.435
 Vibration    35          0.970              1.008              0.431
 Vibration    36          0.975              0.999              0.424
 Vibration    37          0.978              0.993              0.419

 Normal termination of Gaussian 09 at Sun Dec 29 04:25:05 2013.
