 Gaussian 09, Revision C.01,
 Gaussian 09:  EM64L-G09RevC.01 23-Sep-2011

 --------------------------------------------
 #B3LYP/6-31++G(d,p) opt scf=direct freq test
 --------------------------------------------

 Geom opt of No.81 candidate from the CEPDB database with SMILE code of
  C1ccc2c1c(sc2-c1ccc[Se]1)-c1ncc(-c2nccs2)c2nsnc12, HPC, 20131227, Shu
 o Dai, Gaussian09
 ----------------------------------------------------------------------
 Charge =  0 Multiplicity = 1

 SCF Done:  E(RB3LYP) =  -4541.32093891     A.U. after   16 cycles
 SCF Done:  E(RB3LYP) =  -4541.77348629     A.U. after   16 cycles
 SCF Done:  E(RB3LYP) =  -4542.36761454     A.U. after   18 cycles
 SCF Done:  E(RB3LYP) =  -4542.77644191     A.U. after   19 cycles
 SCF Done:  E(RB3LYP) =  -4542.82189828     A.U. after   19 cycles
 SCF Done:  E(RB3LYP) =  -4542.92283337     A.U. after   18 cycles
 SCF Done:  E(RB3LYP) =  -4543.00328010     A.U. after   18 cycles
 SCF Done:  E(RB3LYP) =  -4543.01496318     A.U. after   17 cycles
 SCF Done:  E(RB3LYP) =  -4542.99188105     A.U. after   24 cycles
 SCF Done:  E(RB3LYP) =  -4543.01678592     A.U. after   25 cycles
 SCF Done:  E(RB3LYP) =  -4543.02627396     A.U. after   18 cycles
 SCF Done:  E(RB3LYP) =  -4543.02629293     A.U. after   18 cycles
 SCF Done:  E(RB3LYP) =  -4543.02630164     A.U. after   14 cycles
 SCF Done:  E(RB3LYP) =  -4543.02630379     A.U. after   10 cycles
 SCF Done:  E(RB3LYP) =  -4543.02630481     A.U. after   10 cycles
 SCF Done:  E(RB3LYP) =  -4543.02630529     A.U. after   10 cycles
 SCF Done:  E(RB3LYP) =  -4543.02630548     A.U. after    9 cycles
 SCF Done:  E(RB3LYP) =  -4543.02630555     A.U. after    8 cycles
 SCF Done:  E(RB3LYP) =  -4543.02630555     A.U. after    9 cycles
 Optimization completed.
    -- Stationary point found.
 Normal termination of Gaussian 09 at Mon Dec 30 01:17:24 2013.

 ----------------------------------------------------------------------
 #N Geom=AllCheck Guess=TCheck SCRF=Check Test GenChk RB3LYP/6-31++G(d,
 p) Freq
 ----------------------------------------------------------------------

 Geom opt of No.81 candidate from the CEPDB database with SMILE code of
  C1ccc2c1c(sc2-c1ccc[Se]1)-c1ncc(-c2nccs2)c2nsnc12, HPC, 20131227, Shu
 o Dai, Gaussian09
 ----------------------------------------------------------------------
 Charge =  0 Multiplicity = 1

                         Standard orientation:
 ---------------------------------------------------------------------
 Center     Atomic      Atomic             Coordinates (Angstroms)
 Number     Number       Type             X           Y           Z
 ---------------------------------------------------------------------
      1          6           0        0.932779    3.067439   -0.000238
      2          6           0        2.343548    3.619579   -0.000313
      3          6           0        3.267201    2.631872   -0.000331
      4          6           0        2.580102    1.340104   -0.000306
      5          6           0        1.179220    1.583605   -0.000290
      6          6           0        0.402605    0.439401   -0.000184
      7         16           0        1.450247   -0.985191   -0.000169
      8          6           0        2.915451   -0.007797   -0.000220
      9          6           0        4.206530   -0.647634    0.000104
     10          6           0        4.485861   -2.000762    0.000289
     11          6           0        5.867145   -2.346822    0.000430
     12          6           0        6.733903   -1.288325    0.000428
     13         34           0        5.816742    0.341486    0.000120
     14          6           0       -1.041541    0.377461   -0.000047
     15          7           0       -1.709156    1.532217    0.000116
     16          6           0       -3.062580    1.557414    0.000146
     17          6           0       -3.908061    0.451648    0.000082
     18          6           0       -5.356987    0.622856    0.000196
     19          7           0       -5.936280    1.804052    0.000490
     20          6           0       -7.299223    1.697750    0.000499
     21          6           0       -7.798311    0.421932    0.000221
     22         16           0       -6.502319   -0.723587   -0.000081
     23          6           0       -3.241910   -0.812594   -0.000047
     24          7           0       -3.806681   -2.026359   -0.000153
     25         16           0       -2.577871   -3.120976   -0.000287
     26          7           0       -1.296467   -2.093778   -0.000220
     27          6           0       -1.794876   -0.855553   -0.000126
     28          1           0        0.349897    3.388679   -0.873131
     29          1           0        0.349935    3.388567    0.872707
     30          1           0        2.562668    4.681701   -0.000342
     31          1           0        4.339619    2.777184   -0.000575
     32          1           0        3.702093   -2.750857    0.000227
     33          1           0        6.207566   -3.377335    0.000598
     34          1           0        7.814326   -1.314171    0.000496
     35          1           0       -3.510517    2.545831    0.000231
     36          1           0       -7.899321    2.599986    0.000737
     37          1           0       -8.831419    0.103583    0.000177
 ---------------------------------------------------------------------

 SCF Done:  E(RB3LYP) =  -4543.02630555     A.U. after    2 cycles

 The electronic state is 1-A.
 Alpha  occ. eigenvalues -- -453.90596 -88.99643 -88.92561 -88.92188 -57.50526
 Alpha  occ. eigenvalues --  -52.17883 -52.17770 -52.17515 -14.39707 -14.39029
 Alpha  occ. eigenvalues --  -14.35214 -14.34522 -10.26940 -10.26863 -10.26677
 Alpha  occ. eigenvalues --  -10.26507 -10.24689 -10.24302 -10.24178 -10.23857
 Alpha  occ. eigenvalues --  -10.23085 -10.22968 -10.22842 -10.22666 -10.21454
 Alpha  occ. eigenvalues --  -10.21138 -10.20994 -10.20897 -10.20819 -10.20739
 Alpha  occ. eigenvalues --  -10.20660  -8.04936  -7.98448  -7.97969  -7.74869
 Alpha  occ. eigenvalues --   -6.01500  -6.00916  -6.00683  -5.94846  -5.94485
 Alpha  occ. eigenvalues --   -5.94442  -5.94192  -5.94039  -5.93631  -5.79052
 Alpha  occ. eigenvalues --   -5.78668  -5.78093  -2.14677  -2.14620  -2.14103
 Alpha  occ. eigenvalues --   -2.13794  -2.13742  -1.04214  -0.97314  -0.96198
 Alpha  occ. eigenvalues --   -0.91657  -0.90947  -0.87294  -0.84071  -0.82881
 Alpha  occ. eigenvalues --   -0.80779  -0.80131  -0.77758  -0.74430  -0.73494
 Alpha  occ. eigenvalues --   -0.72566  -0.71804  -0.70052  -0.67338  -0.64798
 Alpha  occ. eigenvalues --   -0.64033  -0.60757  -0.59713  -0.58075  -0.57668
 Alpha  occ. eigenvalues --   -0.55713  -0.54404  -0.54001  -0.52769  -0.52470
 Alpha  occ. eigenvalues --   -0.51032  -0.50306  -0.47981  -0.47737  -0.45338
 Alpha  occ. eigenvalues --   -0.45290  -0.43776  -0.42857  -0.42663  -0.42417
 Alpha  occ. eigenvalues --   -0.41954  -0.41904  -0.40769  -0.40585  -0.40054
 Alpha  occ. eigenvalues --   -0.39805  -0.39016  -0.38372  -0.37347  -0.37043
 Alpha  occ. eigenvalues --   -0.36894  -0.35505  -0.34978  -0.34403  -0.33395
 Alpha  occ. eigenvalues --   -0.31500  -0.31335  -0.30259  -0.29618  -0.29005
 Alpha  occ. eigenvalues --   -0.28835  -0.27497  -0.27292  -0.25484  -0.24499
 Alpha  occ. eigenvalues --   -0.23332  -0.20145
 Alpha virt. eigenvalues --   -0.12046  -0.07239  -0.05262  -0.02780  -0.01896
 Alpha virt. eigenvalues --   -0.01726  -0.01103  -0.00654  -0.00529  -0.00326
 Alpha virt. eigenvalues --   -0.00067   0.00183   0.00883   0.01265   0.01564

 Mulliken atomic charges:
              1
     1  C   -0.612148
     2  C   -0.072641
     3  C   -0.626375
     4  C    0.288878
     5  C    0.878461
     6  C   -0.505013
     7  S   -0.007163
     8  C   -0.262351
     9  C    0.485726
    10  C   -0.798379
    11  C    0.082474
    12  C   -0.146704
    13  Se   0.049940
    14  C   -0.119411
    15  N   -0.144582
    16  C    0.507721
    17  C   -0.573085
    18  C   -0.654937
    19  N   -0.062883
    20  C    0.091886
    21  C   -0.221708
    22  S    0.419194
    23  C    0.061902
    24  N   -0.403223
    25  S    0.984965
    26  N   -0.404080
    27  C    0.122276
    28  H    0.185974
    29  H    0.185991
    30  H    0.143833
    31  H    0.067005
    32  H    0.115929
    33  H    0.137841
    34  H    0.217947
    35  H    0.240417
    36  H    0.152148
    37  H    0.194173
 Sum of Mulliken atomic charges =  -0.00000

 Dipole moment (field-independent basis, Debye):
    X=              1.1252    Y=             -0.6632    Z=             -0.0004  Tot=              1.3061
 Quadrupole moment (field-independent basis, Debye-Ang):
   XX=           -159.7685   YY=           -175.1778   ZZ=           -194.5328
   XY=              1.6774   XZ=              0.0013   YZ=             -0.0021

  Exact polarizability: 823.153 -25.139 383.732   0.139  -0.043 162.190
 Approx polarizability:1261.935 -39.989 774.911   0.002   0.007 273.770

                     1                      2                      3
                     A                      A                      A
 Frequencies --    17.2488                24.7394                31.6111
 Red. masses --     9.5280                 6.4452                 9.3092
 Frc consts  --     0.0017                 0.0023                 0.0055
 IR Inten    --     0.0005                 0.4839                 1.2706

                     4                      5                      6
                     A                      A                      A
 Frequencies --    46.1989                46.4803                73.7152
 Red. masses --     9.1984                 9.7738                 7.9940
 Frc consts  --     0.0116                 0.0124                 0.0256
 IR Inten    --     0.2001                 0.0441                 0.0009

                     7                      8                      9
                     A                      A                      A
 Frequencies --   102.5421               118.7730               119.9320
 Red. masses --     7.7342                14.9941                 5.7467
 Frc consts  --     0.0479                 0.1246                 0.0487
 IR Inten    --     1.2637                 0.0955                 1.5926

                    10                     11                     12
                     A                      A                      A
 Frequencies --   146.5110               157.9772               187.4264
 Red. masses --     9.4552                 4.3203                 4.7911
 Frc consts  --     0.1196                 0.0635                 0.0992
 IR Inten    --     0.8215                 0.0003                 0.1207

                    13                     14                     15
                     A                      A                      A
 Frequencies --   193.9630               202.5181               226.4512
 Red. masses --     8.3382                 9.5051                 5.0184
 Frc consts  --     0.1848                 0.2297                 0.1516
 IR Inten    --     0.4984                 0.7462                 0.9544

                    16                     17                     18
                     A                      A                      A
 Frequencies --   239.6122               254.0536               291.4943
 Red. masses --     6.7906                 9.9913                 8.1202
 Frc consts  --     0.2297                 0.3799                 0.4065
 IR Inten    --     0.4191                 2.8208                 6.7122

                    19                     20                     21
                     A                      A                      A
 Frequencies --   299.0223               329.0710               389.1449
 Red. masses --    10.9445                 4.1146                 3.7951
 Frc consts  --     0.5766                 0.2625                 0.3386
 IR Inten    --     2.2914                 2.3844                 0.1193

                    22                     23                     24
                     A                      A                      A
 Frequencies --   399.7025               440.3538               450.2458
 Red. masses --    11.6755                 3.2958                 7.1312
 Frc consts  --     1.0990                 0.3765                 0.8518
 IR Inten    --     0.1166                 7.9140                 0.5361

                    25                     26                     27
                     A                      A                      A
 Frequencies --   475.3899               502.8589               508.5782
 Red. masses --     6.2529                11.3601                 4.2170
 Frc consts  --     0.8326                 1.6925                 0.6426
 IR Inten    --     0.5381                22.2024                 0.2654

                    28                     29                     30
                     A                      A                      A
 Frequencies --   513.2638               520.7986               525.5863
 Red. masses --    10.6786                 8.1419                 6.2364
 Frc consts  --     1.6575                 1.3011                 1.0150
 IR Inten    --     5.2808                 8.5533                19.1702

                    31                     32                     33
                     A                      A                      A
 Frequencies --   537.5396               549.3274               589.3771
 Red. masses --    12.4115                 6.0201                 5.3238
 Frc consts  --     2.1130                 1.0703                 1.0896
 IR Inten    --     8.0770                 0.2701                 0.7590

                    34                     35                     36
                     A                      A                      A
 Frequencies --   609.2591               633.3054               642.1512
 Red. masses --    11.8475                 6.3499                 5.8497
 Frc consts  --     2.5911                 1.5005                 1.4212
 IR Inten    --     1.8826                16.5862                12.3370

                    37                     38                     39
                     A                      A                      A
 Frequencies --   667.7776               670.1672               691.4366
 Red. masses --     9.0498                 2.2632                 5.7592
 Frc consts  --     2.3777                 0.5989                 1.6223
 IR Inten    --    13.0046                 3.0215                 5.7819

                    40                     41                     42
                     A                      A                      A
 Frequencies --   697.3277               711.1100               724.9563
 Red. masses --     1.1675                 1.5917                11.3551
 Frc consts  --     0.3345                 0.4742                 3.5161
 IR Inten    --    81.8659                20.4478                 0.6798

                    43                     44                     45
                     A                      A                      A
 Frequencies --   726.7037               745.3056               755.2135
 Red. masses --     1.3319                 2.0894                 8.1220
 Frc consts  --     0.4144                 0.6838                 2.7293
 IR Inten    --    41.7083                 7.1142                 0.1743

                    46                     47                     48
                     A                      A                      A
 Frequencies --   765.4793               792.6090               797.6222
 Red. masses --     8.1386                 6.5533                10.6720
 Frc consts  --     2.8097                 2.4257                 4.0003
 IR Inten    --    18.7713                42.9532                 1.8994

                    49                     50                     51
                     A                      A                      A
 Frequencies --   823.1894               837.6492               848.4330
 Red. masses --     6.3684                12.1931                10.8459
 Frc consts  --     2.5426                 5.0407                 4.5999
 IR Inten    --    10.6360                58.5768                76.8310

                    52                     53                     54
                     A                      A                      A
 Frequencies --   863.3677               880.5636               903.2377
 Red. masses --     8.2264                 5.0956                 1.3197
 Frc consts  --     3.6129                 2.3279                 0.6343
 IR Inten    --     4.9886                79.2410                 3.2779

                    55                     56                     57
                     A                      A                      A
 Frequencies --   905.5630               914.2494               930.5457
 Red. masses --     1.3943                 6.4019                 5.5979
 Frc consts  --     0.6737                 3.1527                 2.8560
 IR Inten    --     2.5419                 4.3072                10.6970

                    58                     59                     60
                     A                      A                      A
 Frequencies --   935.8401               945.0437               958.9883
 Red. masses --     1.7669                 3.5576                 3.3581
 Frc consts  --     0.9117                 1.8720                 1.8196
 IR Inten    --     6.2314                18.1529                 4.8855

                    61                     62                     63
                     A                      A                      A
 Frequencies --   970.6267               970.8380              1009.2786
 Red. masses --     1.4536                 1.4539                 2.3683
 Frc consts  --     0.8068                 0.8074                 1.4214
 IR Inten    --     3.6671                 3.8671                 1.6209

                    64                     65                     66
                     A                      A                      A
 Frequencies --  1041.7486              1075.8568              1087.9936
 Red. masses --     4.3870                 1.7471                 1.4816
 Frc consts  --     2.8051                 1.1914                 1.0333
 IR Inten    --    17.6591                12.6699                13.3432

                    67                     68                     69
                     A                      A                      A
 Frequencies --  1103.3684              1108.9671              1136.8573
 Red. masses --     2.1381                 1.3775                 1.1422
 Frc consts  --     1.5336                 0.9981                 0.8697
 IR Inten    --    21.7767                26.8369                 0.7586

                    70                     71                     72
                     A                      A                      A
 Frequencies --  1138.1899              1161.2685              1220.3471
 Red. masses --     1.4919                 2.6987                 2.5507
 Frc consts  --     1.1387                 2.1442                 2.2381
 IR Inten    --    77.0730                 5.7814                13.6869

                    73                     74                     75
                     A                      A                      A
 Frequencies --  1242.8527              1262.7862              1280.1708
 Red. masses --     2.4356                 1.7470                 2.1868
 Frc consts  --     2.2166                 1.6414                 2.1115
 IR Inten    --    46.1002                26.9786                12.7257

                    76                     77                     78
                     A                      A                      A
 Frequencies --  1296.8317              1339.5474              1346.4765
 Red. masses --     6.1139                 1.9181                 2.1445
 Frc consts  --     6.0581                 2.0278                 2.2908
 IR Inten    --   106.5999                10.2940                14.5225

                    79                     80                     81
                     A                      A                      A
 Frequencies --  1352.9126              1358.8251              1362.8145
 Red. masses --     2.9590                 8.3414                 4.2367
 Frc consts  --     3.1910                 9.0744                 4.6361
 IR Inten    --    20.7903                99.4245               150.0337

                    82                     83                     84
                     A                      A                      A
 Frequencies --  1381.8959              1396.9003              1407.4928
 Red. masses --     3.4661                 3.2337                 7.8206
 Frc consts  --     3.8998                 3.7177                 9.1281
 IR Inten    --    36.1582                12.4080                10.5119

                    85                     86                     87
                     A                      A                      A
 Frequencies --  1434.7114              1460.4930              1478.5383
 Red. masses --     1.2314                 6.8844                 5.9601
 Frc consts  --     1.4934                 8.6519                 7.6767
 IR Inten    --     5.0025                 6.3609               169.3542

                    88                     89                     90
                     A                      A                      A
 Frequencies --  1491.6043              1522.6137              1528.0468
 Red. masses --     6.9398                 7.3493                 6.1205
 Frc consts  --     9.0971                10.0386                 8.4199
 IR Inten    --   623.6825               384.7975                12.2394

                    91                     92                     93
                     A                      A                      A
 Frequencies --  1558.4233              1565.0560              1578.6542
 Red. masses --     4.8716                 5.3545                10.2221
 Frc consts  --     6.9709                 7.7273                15.0095
 IR Inten    --    78.9145                 4.8539                53.6016

                    94                     95                     96
                     A                      A                      A
 Frequencies --  1598.1958              1614.9813              3048.2054
 Red. masses --     7.7079                 7.1255                 1.0617
 Frc consts  --    11.5997                10.9497                 5.8123
 IR Inten    --    23.5946                26.5968                 4.5813

                    97                     98                     99
                     A                      A                      A
 Frequencies --  3071.4541              3201.5035              3212.3892
 Red. masses --     1.0997                 1.0879                 1.0909
 Frc consts  --     6.1124                 6.5697                 6.6329
 IR Inten    --     2.2047                18.7831                 9.2232

                   100                    101                    102
                     A                      A                      A
 Frequencies --  3216.0362              3218.0375              3228.5232
 Red. masses --     1.0948                 1.0893                 1.0909
 Frc consts  --     6.6714                 6.6460                 6.6998
 IR Inten    --     2.4184                 3.6852                21.2761

                   103                    104                    105
                     A                      A                      A
 Frequencies --  3246.9160              3267.9731              3270.6448
 Red. masses --     1.1000                 1.0962                 1.0981
 Frc consts  --     6.8327                 6.8978                 6.9206
 IR Inten    --    13.5710                 1.4556                 0.8920

 - Thermochemistry -
 -------------------
 Temperature   298.150 Kelvin.  Pressure   1.00000 Atm.
 Atom     1 has atomic number  6 and mass  12.00000

 Molecular mass:   469.92328 amu.
 Principal axes and moments of inertia in atomic units:
                           1         2         3
     Eigenvalues --  4612.13191********************
           X            0.99996  -0.00858  -0.00000
           Y            0.00858   0.99996  -0.00000
           Z            0.00000   0.00000   1.00000
 This molecule is an asymmetric top.
 Rotational symmetry number  1.
 Warning -- assumption of classical behavior for rotation
           may cause significant error
 Rotational temperatures (Kelvin)      0.01878     0.00258     0.00227
 Rotational constants (GHZ):           0.39130     0.05384     0.04734
 Zero-point vibrational energy     650508.0 (Joules/Mol)
                                  155.47515 (Kcal/Mol)
 Warning -- explicit consideration of  34 degrees of freedom as
           vibrations may cause significant error
 Vibrational temperatures:     24.82    35.59    45.48    66.47    66.87
          (Kelvin)            106.06   147.54   170.89   172.56   210.80
                              227.29   269.66   279.07   291.38   325.81
                              344.75   365.53   419.39   430.23   473.46
                              559.89   575.08   633.57   647.80   683.98
                              723.50   731.73   738.47   749.31   756.20
                              773.40   790.36   847.98   876.59   911.18
                              923.91   960.78   964.22   994.82  1003.30
                             1023.13  1043.05  1045.56  1072.33  1086.58
                             1101.35  1140.39  1147.60  1184.38  1205.19
                             1220.70  1242.19  1266.93  1299.56  1302.90
                             1315.40  1338.85  1346.46  1359.71  1379.77
                             1396.51  1396.82  1452.13  1498.84  1547.92
                             1565.38  1587.50  1595.55  1635.68  1637.60
                             1670.80  1755.81  1788.19  1816.87  1841.88
                             1865.85  1927.31  1937.28  1946.54  1955.04
                             1960.78  1988.24  2009.83  2025.07  2064.23
                             2101.32  2127.28  2146.08  2190.70  2198.52
                             2242.22  2251.76  2271.33  2299.44  2323.60
                             4385.68  4419.13  4606.24  4621.91  4627.15
                             4630.03  4645.12  4671.58  4701.88  4705.72

 Zero-point correction=                           0.247765 (Hartree/Particle)
 Thermal correction to Energy=                    0.269454
 Thermal correction to Enthalpy=                  0.270398
 Thermal correction to Gibbs Free Energy=         0.193541
 Sum of electronic and zero-point Energies=          -4542.778540
 Sum of electronic and thermal Energies=             -4542.756852
 Sum of electronic and thermal Enthalpies=           -4542.755908
 Sum of electronic and thermal Free Energies=        -4542.832764

                     E (Thermal)             CV                S
                      KCal/Mol        Cal/Mol-Kelvin    Cal/Mol-Kelvin
 Total                  169.085             84.072            161.759
 Electronic               0.000              0.000              0.000
 Translational            0.889              2.981             44.331
 Rotational               0.889              2.981             37.020
 Vibrational            167.307             78.110             80.408
 Vibration     1          0.593              1.986              6.928
 Vibration     2          0.593              1.985              6.212
 Vibration     3          0.594              1.983              5.726
 Vibration     4          0.595              1.979              4.974
 Vibration     5          0.595              1.979              4.962
 Vibration     6          0.599              1.966              4.052
 Vibration     7          0.605              1.947              3.405
 Vibration     8          0.609              1.934              3.120
 Vibration     9          0.609              1.933              3.101
 Vibration    10          0.617              1.906              2.717
 Vibration    11          0.621              1.894              2.574
 Vibration    12          0.632              1.857              2.253
 Vibration    13          0.635              1.848              2.190
 Vibration    14          0.639              1.836              2.110
 Vibration    15          0.650              1.801              1.907
 Vibration    16          0.657              1.780              1.806
 Vibration    17          0.665              1.756              1.702
 Vibration    18          0.687              1.690              1.465
 Vibration    19          0.692              1.676              1.422
 Vibration    20          0.712              1.617              1.265
 Vibration    21          0.757              1.493              1.003
 Vibration    22          0.766              1.471              0.964
 Vibration    23          0.800              1.382              0.825
 Vibration    24          0.809              1.360              0.795
 Vibration    25          0.832              1.305              0.723
 Vibration    26          0.858              1.244              0.651
 Vibration    27          0.864              1.231              0.637
 Vibration    28          0.868              1.221              0.626
 Vibration    29          0.876              1.204              0.608
 Vibration    30          0.881              1.193              0.597
 Vibration    31          0.893              1.167              0.571
 Vibration    32          0.905              1.141              0.546
 Vibration    33          0.947              1.054              0.468
 Vibration    34          0.968              1.012              0.434

 Optimization completed.
    -- Stationary point found.
 Normal termination of Gaussian 09 at Mon Dec 30 02:26:48 2013.
