 Gaussian 09, Revision C.01,
 Gaussian 09:  EM64L-G09RevC.01 23-Sep-2011

 --------------------------------------------
 #B3LYP/6-31++G(d,p) opt scf=direct freq test
 --------------------------------------------

 Geom opt of No.92 candidate from the CEPDB database with SMILE code of
  C1ccc2c1csc2-c1ncc(s1)-c1ccc([Se]1)-c1cncc2nsnc12, HPC, 20131227, Shu
 o Dai, Gaussian09
 ----------------------------------------------------------------------
 Charge =  0 Multiplicity = 1

 SCF Done:  E(RB3LYP) =  -4541.21750429     A.U. after   17 cycles
 SCF Done:  E(RB3LYP) =  -4541.66888124     A.U. after   18 cycles
 SCF Done:  E(RB3LYP) =  -4542.27257631     A.U. after   18 cycles
 SCF Done:  E(RB3LYP) =  -4542.70850146     A.U. after   19 cycles
 SCF Done:  E(RB3LYP) =  -4542.76775817     A.U. after   19 cycles
 SCF Done:  E(RB3LYP) =  -4542.87196099     A.U. after   19 cycles
 SCF Done:  E(RB3LYP) =  -4542.96866408     A.U. after   19 cycles
 SCF Done:  E(RB3LYP) =  -4542.99526350     A.U. after   19 cycles
 SCF Done:  E(RB3LYP) =  -4542.99135661     A.U. after   26 cycles
 SCF Done:  E(RB3LYP) =  -4543.00303700     A.U. after   19 cycles
 SCF Done:  E(RB3LYP) =  -4543.02332005     A.U. after   16 cycles
 SCF Done:  E(RB3LYP) =  -4543.02332133     A.U. after   16 cycles
 SCF Done:  E(RB3LYP) =  -4543.02332267     A.U. after   16 cycles
 SCF Done:  E(RB3LYP) =  -4543.02332332     A.U. after   16 cycles
 SCF Done:  E(RB3LYP) =  -4543.02332341     A.U. after   10 cycles
 SCF Done:  E(RB3LYP) =  -4543.02332342     A.U. after    8 cycles
 SCF Done:  E(RB3LYP) =  -4543.02332344     A.U. after    8 cycles
 SCF Done:  E(RB3LYP) =  -4543.02332346     A.U. after    9 cycles
 SCF Done:  E(RB3LYP) =  -4543.02332349     A.U. after    9 cycles
 Optimization completed.
    -- Stationary point found.
 Normal termination of Gaussian 09 at Mon Dec 30 07:25:48 2013.

 ----------------------------------------------------------------------
 #N Geom=AllCheck Guess=TCheck SCRF=Check Test GenChk RB3LYP/6-31++G(d,
 p) Freq
 ----------------------------------------------------------------------

 Geom opt of No.92 candidate from the CEPDB database with SMILE code of
  C1ccc2c1csc2-c1ncc(s1)-c1ccc([Se]1)-c1cncc2nsnc12, HPC, 20131227, Shu
 o Dai, Gaussian09
 ----------------------------------------------------------------------
 Charge =  0 Multiplicity = 1

                         Standard orientation:
 ---------------------------------------------------------------------
 Center     Atomic      Atomic             Coordinates (Angstroms)
 Number     Number       Type             X           Y           Z
 ---------------------------------------------------------------------
      1          6           0        7.506853    2.104130    0.128095
      2          6           0        6.217467    2.903705    0.151538
      3          6           0        5.125621    2.105327    0.108760
      4          6           0        5.555322    0.709998    0.054080
      5          6           0        6.989018    0.687008    0.063604
      6          6           0        7.507855   -0.573507    0.012778
      7         16           0        6.251145   -1.778130   -0.048719
      8          6           0        4.985394   -0.551291   -0.004285
      9          6           0        3.607975   -0.967926   -0.030572
     10          7           0        3.219137   -2.223838   -0.102721
     11          6           0        1.864301   -2.335900   -0.115808
     12          6           0        1.135194   -1.161954   -0.052109
     13         16           0        2.263367    0.178888    0.035419
     14          6           0       -0.296876   -0.992636   -0.037655
     15          6           0       -1.262099   -1.978457    0.032457
     16          6           0       -2.606388   -1.533069    0.035212
     17          6           0       -2.797111   -0.166196   -0.021911
     18         34           0       -1.112672    0.709547   -0.106052
     19          6           0       -4.040745    0.582139   -0.032442
     20          6           0       -4.075062    1.971566   -0.109599
     21          7           0       -5.184785    2.763978   -0.125386
     22          6           0       -6.376147    2.215712   -0.064493
     23          6           0       -6.519987    0.799435    0.017974
     24          7           0       -7.673378    0.120911    0.085541
     25         16           0       -7.267520   -1.465323    0.164321
     26          7           0       -5.628013   -1.345269    0.115604
     27          6           0       -5.340217   -0.039480    0.034751
     28          1           0        8.116049    2.292575    1.022515
     29          1           0        8.130540    2.367430   -0.736927
     30          1           0        6.198169    3.986961    0.196406
     31          1           0        4.099256    2.451447    0.114372
     32          1           0        8.543656   -0.887370    0.006158
     33          1           0        1.422192   -3.322754   -0.183568
     34          1           0       -1.007471   -3.030926    0.090769
     35          1           0       -3.445589   -2.214521    0.087977
     36          1           0       -3.139770    2.523186   -0.163702
     37          1           0       -7.251015    2.860287   -0.078107
 ---------------------------------------------------------------------

 SCF Done:  E(RB3LYP) =  -4543.02332349     A.U. after    2 cycles

 The electronic state is 1-A.
 Alpha  occ. eigenvalues -- -453.91099 -88.99952 -88.93228 -88.92287 -57.50977
 Alpha  occ. eigenvalues --  -52.18312 -52.18183 -52.17903 -14.39856 -14.39508
 Alpha  occ. eigenvalues --  -14.36170 -14.35214 -10.27818 -10.27089 -10.26423
 Alpha  occ. eigenvalues --  -10.25199 -10.25146 -10.24977 -10.24544 -10.24448
 Alpha  occ. eigenvalues --  -10.24370 -10.24196 -10.23774 -10.23123 -10.21819
 Alpha  occ. eigenvalues --  -10.21721 -10.21619 -10.21449 -10.21249 -10.21242
 Alpha  occ. eigenvalues --  -10.21107  -8.05274  -7.99190  -7.98101  -7.75191
 Alpha  occ. eigenvalues --   -6.01826  -6.01242  -6.01038  -5.95608  -5.95265
 Alpha  occ. eigenvalues --   -5.94871  -5.94557  -5.94155  -5.93789  -5.79379
 Alpha  occ. eigenvalues --   -5.78996  -5.78359  -2.15007  -2.14957  -2.14392
 Alpha  occ. eigenvalues --   -2.14083  -2.14012  -1.04433  -0.98134  -0.96382
 Alpha  occ. eigenvalues --   -0.91746  -0.90970  -0.88411  -0.84512  -0.83589
 Alpha  occ. eigenvalues --   -0.81571  -0.79683  -0.79026  -0.75228  -0.73360
 Alpha  occ. eigenvalues --   -0.73007  -0.72105  -0.69767  -0.68415  -0.65158
 Alpha  occ. eigenvalues --   -0.64068  -0.61950  -0.61566  -0.58431  -0.57009
 Alpha  occ. eigenvalues --   -0.56515  -0.54889  -0.53808  -0.53273  -0.52831
 Alpha  occ. eigenvalues --   -0.52033  -0.49511  -0.48399  -0.47706  -0.46888
 Alpha  occ. eigenvalues --   -0.46110  -0.44096  -0.43756  -0.43604  -0.43239
 Alpha  occ. eigenvalues --   -0.42717  -0.42070  -0.40898  -0.40563  -0.39957
 Alpha  occ. eigenvalues --   -0.39719  -0.39411  -0.39049  -0.38098  -0.38061
 Alpha  occ. eigenvalues --   -0.37552  -0.35807  -0.35449  -0.34221  -0.33723
 Alpha  occ. eigenvalues --   -0.32257  -0.31979  -0.31449  -0.30056  -0.29170
 Alpha  occ. eigenvalues --   -0.28928  -0.28099  -0.28053  -0.25739  -0.24679
 Alpha  occ. eigenvalues --   -0.23630  -0.20228
 Alpha virt. eigenvalues --   -0.11890  -0.08819  -0.05439  -0.03584  -0.02563
 Alpha virt. eigenvalues --   -0.01982  -0.01824  -0.01593  -0.01247  -0.00788
 Alpha virt. eigenvalues --   -0.00143   0.00364   0.00800   0.01292   0.01527

 Mulliken atomic charges:
              1
     1  C   -1.152465
     2  C    0.524000
     3  C   -1.014393
     4  C    0.180626
     5  C    0.563270
     6  C    0.081474
     7  S    0.162795
     8  C   -0.166834
     9  C   -0.034824
    10  N   -0.060181
    11  C    0.251696
    12  C   -0.293629
    13  S    0.018316
    14  C    0.489073
    15  C   -0.496002
    16  C   -0.551832
    17  C    0.269519
    18  Se  -0.031266
    19  C    0.517050
    20  C   -0.885268
    21  N   -0.081069
    22  C   -0.253133
    23  C    0.642648
    24  N   -0.424202
    25  S    0.845790
    26  N   -0.473686
    27  C   -0.199316
    28  H    0.171878
    29  H    0.171990
    30  H    0.142344
    31  H    0.076695
    32  H    0.170579
    33  H    0.185269
    34  H    0.094561
    35  H    0.190604
    36  H    0.182611
    37  H    0.185311
 Sum of Mulliken atomic charges =  -0.00000

 Dipole moment (field-independent basis, Debye):
    X=              2.2201    Y=              0.4505    Z=              0.2271  Tot=              2.2767
 Quadrupole moment (field-independent basis, Debye-Ang):
   XX=           -159.9662   YY=           -185.2627   ZZ=           -194.1922
   XY=             26.1819   XZ=              0.2942   YZ=              0.2614

  Exact polarizability: 836.090  -2.785 370.743  -0.498  -0.339 162.275
 Approx polarizability:1172.772 -36.249 786.082  -2.351  -2.696 272.758

                     1                      2                      3
                     A                      A                      A
 Frequencies --     7.4297                20.8063                29.1687
 Red. masses --     9.7910                 8.1423                 8.6441
 Frc consts  --     0.0003                 0.0021                 0.0043
 IR Inten    --     0.5565                 0.0154                 0.2010

                     4                      5                      6
                     A                      A                      A
 Frequencies --    30.4747                42.5292                58.0243
 Red. masses --     9.6454                 8.1909                 7.3736
 Frc consts  --     0.0053                 0.0087                 0.0146
 IR Inten    --     0.0867                 0.1328                 0.6941

                     7                      8                      9
                     A                      A                      A
 Frequencies --    76.5341               108.3180               119.3037
 Red. masses --     8.9522                 5.9996                13.4835
 Frc consts  --     0.0309                 0.0415                 0.1131
 IR Inten    --     0.1100                 1.0415                 0.5586

                    10                     11                     12
                     A                      A                      A
 Frequencies --   143.6423               168.5547               189.0872
 Red. masses --     5.4082                 8.8068                 6.3299
 Frc consts  --     0.0657                 0.1474                 0.1333
 IR Inten    --     0.0191                 0.3792                 0.3975

                    13                     14                     15
                     A                      A                      A
 Frequencies --   201.5435               202.7461               235.7319
 Red. masses --    21.2095                 6.3110                 5.3676
 Frc consts  --     0.5076                 0.1528                 0.1757
 IR Inten    --     0.2820                 1.2821                 1.4318

                    16                     17                     18
                     A                      A                      A
 Frequencies --   253.9453               256.4295               297.3314
 Red. masses --     8.4014                 4.9367                 4.8605
 Frc consts  --     0.3192                 0.1913                 0.2532
 IR Inten    --     2.8832                 1.3404                 0.2021

                    19                     20                     21
                     A                      A                      A
 Frequencies --   299.5621               348.6284               351.5798
 Red. masses --    12.1476                 6.8527                 5.6637
 Frc consts  --     0.6423                 0.4907                 0.4125
 IR Inten    --     2.7621                 4.6988                 2.3768

                    22                     23                     24
                     A                      A                      A
 Frequencies --   408.0457               428.0280               444.1266
 Red. masses --     7.8813                 2.2973                 7.4355
 Frc consts  --     0.7731                 0.2480                 0.8641
 IR Inten    --     7.0794                 7.8125                 2.4934

                    25                     26                     27
                     A                      A                      A
 Frequencies --   459.7296               465.8493               491.6927
 Red. masses --     5.9145                 6.0335                 6.3939
 Frc consts  --     0.7365                 0.7715                 0.9108
 IR Inten    --    11.8263                 0.1780                 1.8516

                    28                     29                     30
                     A                      A                      A
 Frequencies --   505.5719               511.7240               538.6617
 Red. masses --    11.0643                10.3033                 6.8956
 Frc consts  --     1.6662                 1.5896                 1.1788
 IR Inten    --     1.4667                 0.3684                28.4970

                    31                     32                     33
                     A                      A                      A
 Frequencies --   549.8068               567.8690               592.1981
 Red. masses --     4.2226                10.6701                 4.2960
 Frc consts  --     0.7521                 2.0273                 0.8877
 IR Inten    --     0.1434                 0.9341                 4.3667

                    34                     35                     36
                     A                      A                      A
 Frequencies --   604.0962               622.9543               625.9559
 Red. masses --     8.6705                 3.7274                 7.9670
 Frc consts  --     1.8643                 0.8523                 1.8392
 IR Inten    --    12.6198                 0.1407                 1.3687

                    37                     38                     39
                     A                      A                      A
 Frequencies --   639.2929               661.3341               666.8010
 Red. masses --     8.0505                 3.3219                 6.9062
 Frc consts  --     1.9385                 0.8560                 1.8092
 IR Inten    --     3.9212                 6.1053                 2.3567

                    40                     41                     42
                     A                      A                      A
 Frequencies --   681.4724               703.8640               722.3637
 Red. masses --     2.1873                 6.4343                10.2383
 Frc consts  --     0.5985                 1.8781                 3.1477
 IR Inten    --    11.2166                 0.7785                 5.8239

                    43                     44                     45
                     A                      A                      A
 Frequencies --   740.6199               745.4145               771.0314
 Red. masses --     1.5754                 8.3971                 1.4356
 Frc consts  --     0.5091                 2.7490                 0.5028
 IR Inten    --     0.7658                 6.9689                55.1231

                    46                     47                     48
                     A                      A                      A
 Frequencies --   780.5746               817.1281               827.1710
 Red. masses --     5.8293                 6.4348                10.5766
 Frc consts  --     2.0926                 2.5314                 4.2637
 IR Inten    --     1.6587                17.1800                30.4394

                    49                     50                     51
                     A                      A                      A
 Frequencies --   831.6275               836.4101               852.4897
 Red. masses --    10.9950                 5.0646                 9.8743
 Frc consts  --     4.4803                 2.0876                 4.2280
 IR Inten    --    49.9777                18.9929                12.3814

                    52                     53                     54
                     A                      A                      A
 Frequencies --   866.9920               868.3107               883.1947
 Red. masses --     6.0911                 1.4966                 1.7319
 Frc consts  --     2.6976                 0.6648                 0.7959
 IR Inten    --    21.5852                40.5316                 3.4783

                    55                     56                     57
                     A                      A                      A
 Frequencies --   900.0532               903.9817               916.7690
 Red. masses --     1.4742                 7.4344                 7.3319
 Frc consts  --     0.7036                 3.5795                 3.6307
 IR Inten    --    11.7885                35.8159                11.1650

                    58                     59                     60
                     A                      A                      A
 Frequencies --   921.0317               923.6876               948.3881
 Red. masses --     1.3534                 3.5696                 1.6002
 Frc consts  --     0.6764                 1.7944                 0.8480
 IR Inten    --     2.2487                 0.6935                 4.6425

                    61                     62                     63
                     A                      A                      A
 Frequencies --   948.4566               966.6971               982.1569
 Red. masses --     2.4890                 1.5836                 1.5737
 Frc consts  --     1.3192                 0.8719                 0.8944
 IR Inten    --    33.0192                 0.1569                 1.3214

                    64                     65                     66
                     A                      A                      A
 Frequencies --  1064.1933              1078.1517              1140.2574
 Red. masses --     3.2753                 1.9366                 1.2440
 Frc consts  --     2.1855                 1.3263                 0.9530
 IR Inten    --     0.1553                49.5428                 4.0145

                    67                     68                     69
                     A                      A                      A
 Frequencies --  1141.6222              1152.0722              1163.3144
 Red. masses --     3.6721                 1.1238                 5.0095
 Frc consts  --     2.8198                 0.8788                 3.9943
 IR Inten    --     7.3357                 1.6890                 2.8353

                    70                     71                     72
                     A                      A                      A
 Frequencies --  1176.5925              1185.1979              1204.8468
 Red. masses --     1.8515                 2.7109                 1.7614
 Frc consts  --     1.5102                 2.2436                 1.5065
 IR Inten    --    21.9037                 7.4499                25.4335

                    73                     74                     75
                     A                      A                      A
 Frequencies --  1258.1047              1276.5051              1290.2552
 Red. masses --     1.7608                 1.7779                 3.1847
 Frc consts  --     1.6421                 1.7069                 3.1237
 IR Inten    --     2.7037                10.8912                73.6260

                    76                     77                     78
                     A                      A                      A
 Frequencies --  1305.2189              1318.3048              1342.8400
 Red. masses --     2.7744                 2.4563                 2.6801
 Frc consts  --     2.7848                 2.5151                 2.8474
 IR Inten    --    25.7388                12.1195                73.7540

                    79                     80                     81
                     A                      A                      A
 Frequencies --  1362.2302              1364.5580              1371.0637
 Red. masses --     6.6657                 5.5599                 2.3007
 Frc consts  --     7.2878                 6.0996                 2.5482
 IR Inten    --    71.6973                 4.4953                17.1911

                    82                     83                     84
                     A                      A                      A
 Frequencies --  1381.2026              1387.5962              1422.8921
 Red. masses --     2.2137                 4.9384                 2.7527
 Frc consts  --     2.4882                 5.6023                 3.2836
 IR Inten    --     5.6288                 2.4055                27.7134

                    85                     86                     87
                     A                      A                      A
 Frequencies --  1450.3033              1460.2853              1488.2878
 Red. masses --     1.2100                 4.9765                 6.2255
 Frc consts  --     1.4995                 6.2524                 8.1245
 IR Inten    --    54.4676               221.8081               242.7405

                    88                     89                     90
                     A                      A                      A
 Frequencies --  1513.9617              1521.0880              1537.1980
 Red. masses --     5.8577                 5.7862                 5.0503
 Frc consts  --     7.9105                 7.8877                 7.0311
 IR Inten    --    21.4124               103.7823                76.8161

                    91                     92                     93
                     A                      A                      A
 Frequencies --  1554.6855              1579.3263              1600.0235
 Red. masses --     7.9646                 5.7623                 6.3165
 Frc consts  --    11.3422                 8.4682                 9.5275
 IR Inten    --   125.7782                10.6568                 2.5433

                    94                     95                     96
                     A                      A                      A
 Frequencies --  1608.7141              1625.4356              3033.6727
 Red. masses --     5.7316                 8.2782                 1.0602
 Frc consts  --     8.7395                12.8863                 5.7488
 IR Inten    --    53.1025                40.2038                25.3926

                    97                     98                     99
                     A                      A                      A
 Frequencies --  3060.6946              3176.4676              3192.7940
 Red. masses --     1.1018                 1.0891                 1.0923
 Frc consts  --     6.0811                 6.4747                 6.5606
 IR Inten    --     6.2094                36.8310                 1.0972

                   100                    101                    102
                     A                      A                      A
 Frequencies --  3211.6617              3217.7589              3230.3495
 Red. masses --     1.0907                 1.0880                 1.0925
 Frc consts  --     6.6286                 6.6372                 6.7170
 IR Inten    --     8.8214                 1.0210                11.7324

                   103                    104                    105
                     A                      A                      A
 Frequencies --  3240.9643              3246.0425              3249.8582
 Red. masses --     1.1015                 1.0936                 1.0943
 Frc consts  --     6.8171                 6.7890                 6.8093
 IR Inten    --     6.9948                 0.9709                 0.7898

 - Thermochemistry -
 -------------------
 Temperature   298.150 Kelvin.  Pressure   1.00000 Atm.
 Atom     1 has atomic number  6 and mass  12.00000

 Molecular mass:   469.92328 amu.
 Principal axes and moments of inertia in atomic units:
                           1         2         3
     Eigenvalues --  3628.61251********************
           X            0.99999   0.00521   0.00030
           Y           -0.00521   0.99998   0.00204
           Z           -0.00029  -0.00205   1.00000
 This molecule is an asymmetric top.
 Rotational symmetry number  1.
 Warning -- assumption of classical behavior for rotation
           may cause significant error
 Rotational temperatures (Kelvin)      0.02387     0.00223     0.00204
 Rotational constants (GHZ):           0.49736     0.04652     0.04258
 Zero-point vibrational energy     650478.9 (Joules/Mol)
                                  155.46820 (Kcal/Mol)
 Warning -- explicit consideration of  34 degrees of freedom as
           vibrations may cause significant error
 Vibrational temperatures:     10.69    29.94    41.97    43.85    61.19
          (Kelvin)             83.48   110.12   155.85   171.65   206.67
                              242.51   272.05   289.98   291.71   339.17
                              365.37   368.94   427.79   431.00   501.60
                              505.84   587.09   615.84   639.00   661.45
                              670.25   707.44   727.40   736.26   775.01
                              791.05   817.04   852.04   869.16   896.29
                              900.61   919.80   951.51   959.38   980.49
                             1012.70  1039.32  1065.59  1072.48  1109.34
                             1123.07  1175.66  1190.11  1196.52  1203.41
                             1226.54  1247.41  1249.30  1270.72  1294.97
                             1300.63  1319.02  1325.16  1328.98  1364.52
                             1364.62  1390.86  1413.10  1531.13  1551.22
                             1640.57  1642.54  1657.57  1673.75  1692.85
                             1705.23  1733.50  1810.13  1836.60  1856.39
                             1877.92  1896.74  1932.04  1959.94  1963.29
                             1972.65  1987.24  1996.44  2047.22  2086.66
                             2101.02  2141.31  2178.25  2188.50  2211.68
                             2236.84  2272.30  2302.07  2314.58  2338.64
                             4364.77  4403.65  4570.22  4593.71  4620.86
                             4629.63  4647.75  4663.02  4670.33  4675.82

 Zero-point correction=                           0.247754 (Hartree/Particle)
 Thermal correction to Energy=                    0.269636
 Thermal correction to Enthalpy=                  0.270580
 Thermal correction to Gibbs Free Energy=         0.191670
 Sum of electronic and zero-point Energies=          -4542.775569
 Sum of electronic and thermal Energies=             -4542.753687
 Sum of electronic and thermal Enthalpies=           -4542.752743
 Sum of electronic and thermal Free Energies=        -4542.831653

                     E (Thermal)             CV                S
                      KCal/Mol        Cal/Mol-Kelvin    Cal/Mol-Kelvin
 Total                  169.199             84.206            166.080
 Electronic               0.000              0.000              0.000
 Translational            0.889              2.981             44.331
 Rotational               0.889              2.981             37.032
 Vibrational            167.422             78.244             84.718
 Vibration     1          0.593              1.987              8.601
 Vibration     2          0.593              1.986              6.556
 Vibration     3          0.593              1.984              5.885
 Vibration     4          0.594              1.984              5.798
 Vibration     5          0.595              1.980              5.138
 Vibration     6          0.596              1.974              4.523
 Vibration     7          0.599              1.965              3.978
 Vibration     8          0.606              1.943              3.299
 Vibration     9          0.609              1.933              3.112
 Vibration    10          0.616              1.910              2.755
 Vibration    11          0.625              1.881              2.452
 Vibration    12          0.633              1.855              2.237
 Vibration    13          0.638              1.838              2.119
 Vibration    14          0.639              1.836              2.108
 Vibration    15          0.655              1.786              1.835
 Vibration    16          0.665              1.756              1.703
 Vibration    17          0.666              1.752              1.686
 Vibration    18          0.691              1.679              1.432
 Vibration    19          0.692              1.675              1.419
 Vibration    20          0.726              1.578              1.172
 Vibration    21          0.728              1.572              1.159
 Vibration    22          0.773              1.453              0.934
 Vibration    23          0.790              1.409              0.865
 Vibration    24          0.804              1.374              0.814
 Vibration    25          0.818              1.339              0.767
 Vibration    26          0.823              1.326              0.749
 Vibration    27          0.847              1.268              0.679
 Vibration    28          0.861              1.238              0.644
 Vibration    29          0.867              1.224              0.629
 Vibration    30          0.894              1.165              0.568
 Vibration    31          0.905              1.140              0.545
 Vibration    32          0.924              1.101              0.508
 Vibration    33          0.950              1.048              0.463
 Vibration    34          0.963              1.023              0.443

 Optimization completed.
    -- Stationary point found.
 Normal termination of Gaussian 09 at Mon Dec 30 08:36:48 2013.
