 Gaussian 09, Revision C.01,
 Gaussian 09:  EM64L-G09RevC.01 23-Sep-2011

 --------------------------------------------
 #B3LYP/6-31++G(d,p) opt scf=direct freq test
 --------------------------------------------

 Geom opt of No.65 candidate from the CEPDB database with SMILE code of
  c1occ2c1ccc1sc3cc([Se]c3c21)-c1cncc2nsnc12, HPC, 20131227, Shuo Dai,
 Gaussian09
 ----------------------------------------------------------------------
 Charge =  0 Multiplicity = 1

 SCF Done:  E(RB3LYP) =  -4087.97392326     A.U. after   19 cycles
 SCF Done:  E(RB3LYP) =  -4088.17115636     A.U. after   18 cycles
 SCF Done:  E(RB3LYP) =  -4088.38855147     A.U. after   23 cycles
 SCF Done:  E(RB3LYP) =  -4088.45097899     A.U. after   23 cycles
 SCF Done:  E(RB3LYP) =  -4088.48174256     A.U. after   19 cycles
 SCF Done:  E(RB3LYP) =  -4088.48274605     A.U. after   23 cycles
 SCF Done:  E(RB3LYP) =  -4088.47648565     A.U. after   24 cycles
 SCF Done:  E(RB3LYP) =  -4088.48945314     A.U. after   23 cycles
 SCF Done:  E(RB3LYP) =  -4088.49341985     A.U. after   23 cycles
 SCF Done:  E(RB3LYP) =  -4088.49528038     A.U. after   19 cycles
 SCF Done:  E(RB3LYP) =  -4088.49817638     A.U. after   22 cycles
 SCF Done:  E(RB3LYP) =  -4088.49838871     A.U. after   23 cycles
 SCF Done:  E(RB3LYP) =  -4088.49844154     A.U. after   17 cycles
 SCF Done:  E(RB3LYP) =  -4088.49847378     A.U. after   12 cycles
 SCF Done:  E(RB3LYP) =  -4088.49848243     A.U. after   12 cycles
 SCF Done:  E(RB3LYP) =  -4088.49848588     A.U. after   11 cycles
 SCF Done:  E(RB3LYP) =  -4088.49848699     A.U. after   11 cycles
 SCF Done:  E(RB3LYP) =  -4088.49848822     A.U. after   11 cycles
 SCF Done:  E(RB3LYP) =  -4088.49848839     A.U. after    9 cycles
 Optimization completed.
    -- Stationary point found.
 Normal termination of Gaussian 09 at Sun Dec 29 16:45:15 2013.

 ----------------------------------------------------------------------
 #N Geom=AllCheck Guess=TCheck SCRF=Check Test GenChk RB3LYP/6-31++G(d,
 p) Freq
 ----------------------------------------------------------------------

 Geom opt of No.65 candidate from the CEPDB database with SMILE code of
  c1occ2c1ccc1sc3cc([Se]c3c21)-c1cncc2nsnc12, HPC, 20131227, Shuo Dai,
 Gaussian09
 ----------------------------------------------------------------------
 Charge =  0 Multiplicity = 1

                         Standard orientation:
 ---------------------------------------------------------------------
 Center     Atomic      Atomic             Coordinates (Angstroms)
 Number     Number       Type             X           Y           Z
 ---------------------------------------------------------------------
      1          6           0        5.612202   -1.663414   -0.677765
      2          8           0        4.712146   -2.678760   -0.595289
      3          6           0        3.486763   -2.153492   -0.313859
      4          6           0        3.584471   -0.787536   -0.212036
      5          6           0        4.982012   -0.461285   -0.450414
      6          6           0        5.438851    0.898009   -0.404141
      7          6           0        4.540883    1.895635   -0.133712
      8          6           0        3.162490    1.579071    0.091611
      9         16           0        1.906134    2.748327    0.462218
     10          6           0        0.715134    1.481674    0.578945
     11          6           0       -0.770390    1.588797    0.756651
     12          6           0       -1.259292    0.204724    1.252056
     13         34           0       -0.028157   -1.154011    0.377209
     14          6           0        1.257802    0.250652    0.336931
     15          6           0        2.657516    0.272730    0.064098
     16          6           0       -2.704750   -0.102337    1.019048
     17          6           0       -3.508881   -0.530604    2.056974
     18          7           0       -4.849380   -0.818975    1.986512
     19          6           0       -5.473587   -0.681852    0.842900
     20          6           0       -4.782394   -0.234782   -0.324689
     21          7           0       -5.311344   -0.039255   -1.540126
     22         16           0       -4.080630    0.481165   -2.491166
     23          7           0       -2.848338    0.477564   -1.404230
     24          6           0       -3.370136    0.057937   -0.241434
     25          1           0        6.629331   -1.946156   -0.897763
     26          1           0        2.681154   -2.861669   -0.208957
     27          1           0        6.484305    1.130096   -0.580538
     28          1           0        4.866353    2.930471   -0.090229
     29          1           0       -1.238816    1.825707   -0.205290
     30          1           0       -1.066766    2.357210    1.480156
     31          1           0       -1.043566    0.115513    2.319234
     32          1           0       -3.073063   -0.664278    3.044126
     33          1           0       -6.535566   -0.911197    0.797548
 ---------------------------------------------------------------------

 SCF Done:  E(RB3LYP) =  -4088.49848839     A.U. after    2 cycles

 The electronic state is 1-A.
 Alpha  occ. eigenvalues -- -453.88864 -89.00453 -88.92365 -57.48752 -52.15988
 Alpha  occ. eigenvalues --  -52.15873 -52.15531 -19.23712 -14.40390 -14.39855
 Alpha  occ. eigenvalues --  -14.36811 -10.27402 -10.26953 -10.26262 -10.25482
 Alpha  occ. eigenvalues --  -10.25292 -10.24787 -10.24660 -10.24383 -10.23379
 Alpha  occ. eigenvalues --  -10.23212 -10.22721 -10.22305 -10.21840 -10.21185
 Alpha  occ. eigenvalues --  -10.20922 -10.20905 -10.20708  -8.05751  -7.98205
 Alpha  occ. eigenvalues --   -7.72770  -6.02300  -6.01714  -6.01528  -5.94647
 Alpha  occ. eigenvalues --   -5.94295  -5.93881  -5.77022  -5.76684  -5.75671
 Alpha  occ. eigenvalues --   -2.12713  -2.12672  -2.11823  -2.11555  -2.11370
 Alpha  occ. eigenvalues --   -1.12546  -1.04901  -0.97038  -0.92182  -0.91043
 Alpha  occ. eigenvalues --   -0.86391  -0.84296  -0.81403  -0.79752  -0.78772
 Alpha  occ. eigenvalues --   -0.76287  -0.75044  -0.72082  -0.70486  -0.68672
 Alpha  occ. eigenvalues --   -0.65418  -0.65280  -0.62358  -0.61004  -0.59546
 Alpha  occ. eigenvalues --   -0.58775  -0.55421  -0.54475  -0.53912  -0.51505
 Alpha  occ. eigenvalues --   -0.50842  -0.49685  -0.48493  -0.48041  -0.47813
 Alpha  occ. eigenvalues --   -0.46509  -0.45362  -0.44928  -0.44463  -0.43408
 Alpha  occ. eigenvalues --   -0.42415  -0.41269  -0.40928  -0.40524  -0.39901
 Alpha  occ. eigenvalues --   -0.39261  -0.38410  -0.37764  -0.36535  -0.35490
 Alpha  occ. eigenvalues --   -0.35350  -0.34819  -0.33891  -0.32960  -0.32704
 Alpha  occ. eigenvalues --   -0.30716  -0.30454  -0.28728  -0.27296  -0.26877
 Alpha  occ. eigenvalues --   -0.25631  -0.21470  -0.19726
 Alpha virt. eigenvalues --   -0.12026  -0.05909  -0.04312  -0.03267  -0.02222
 Alpha virt. eigenvalues --   -0.02151  -0.01134  -0.00800  -0.00651   0.00235
 Alpha virt. eigenvalues --    0.00314   0.00756   0.01110   0.01302   0.01790

 Mulliken atomic charges:
              1
     1  C    0.355854
     2  O   -0.180446
     3  C    0.024540
     4  C   -0.182214
     5  C    0.451578
     6  C   -1.053934
     7  C   -0.320218
     8  C    0.248482
     9  S    0.057354
    10  C   -0.337138
    11  C   -0.823933
    12  C   -0.299245
    13  Se   0.057542
    14  C   -0.018365
    15  C    0.456214
    16  C    0.833269
    17  C   -0.380584
    18  N   -0.082725
    19  C   -0.484865
    20  C    0.152951
    21  N   -0.427262
    22  S    0.886519
    23  N   -0.345862
    24  C   -0.054110
    25  H    0.166477
    26  H    0.197524
    27  H    0.089125
    28  H    0.109645
    29  H    0.197094
    30  H    0.167100
    31  H    0.184025
    32  H    0.173592
    33  H    0.182014
 Sum of Mulliken atomic charges =  -0.00000

 Dipole moment (field-independent basis, Debye):
    X=              0.0867    Y=              1.6779    Z=             -0.4078  Tot=              1.7290
 Quadrupole moment (field-independent basis, Debye-Ang):
   XX=           -156.7923   YY=           -162.4918   ZZ=           -165.8307
   XY=             -0.2303   XZ=              2.1310   YZ=              1.8070

  Exact polarizability: 413.340  -0.965 256.212 -21.789  -3.565 223.231
 Approx polarizability: 609.049  -5.805 487.027 -50.792  -8.580 419.147

                     1                      2                      3
                     A                      A                      A
 Frequencies --    18.1901                29.8967                46.9944
 Red. masses --    11.1329                10.9926                 8.6516
 Frc consts  --     0.0022                 0.0058                 0.0113
 IR Inten    --     0.0207                 0.1267                 0.0189

                     4                      5                      6
                     A                      A                      A
 Frequencies --    74.4809                93.5030               108.9075
 Red. masses --     9.6010                 6.6164                10.3132
 Frc consts  --     0.0314                 0.0341                 0.0721
 IR Inten    --     0.4674                 0.4269                 0.1840

                     7                      8                      9
                     A                      A                      A
 Frequencies --   154.0458               174.2615               188.2892
 Red. masses --     6.0487                10.0544                 6.0203
 Frc consts  --     0.0846                 0.1799                 0.1258
 IR Inten    --     1.3598                 0.5340                 0.0896

                    10                     11                     12
                     A                      A                      A
 Frequencies --   209.4456               220.3046               231.3334
 Red. masses --     9.3126                 6.9893                 4.0658
 Frc consts  --     0.2407                 0.1999                 0.1282
 IR Inten    --     0.1680                 0.1579                 4.0666

                    13                     14                     15
                     A                      A                      A
 Frequencies --   270.1926               277.2601               287.0256
 Red. masses --     5.5928                 7.4119                 4.1566
 Frc consts  --     0.2406                 0.3357                 0.2018
 IR Inten    --     0.5536                 0.3057                 0.6245

                    16                     17                     18
                     A                      A                      A
 Frequencies --   337.3692               351.1635               391.7508
 Red. masses --     6.2563                10.5175                 7.7378
 Frc consts  --     0.4195                 0.7642                 0.6997
 IR Inten    --     0.3800                 2.4895                 2.3817

                    19                     20                     21
                     A                      A                      A
 Frequencies --   397.8355               443.1968               478.5195
 Red. masses --     6.9282                 6.0687                 7.0921
 Frc consts  --     0.6461                 0.7023                 0.9568
 IR Inten    --     0.7122                 5.4697                 3.1442

                    22                     23                     24
                     A                      A                      A
 Frequencies --   498.9097               511.2402               527.8853
 Red. masses --     8.4286                 5.2159                10.3162
 Frc consts  --     1.2361                 0.8032                 1.6938
 IR Inten    --     5.4048                 1.7482                 3.3630

                    25                     26                     27
                     A                      A                      A
 Frequencies --   532.5764               550.6052               580.1653
 Red. masses --     5.4900                 7.1397                 4.0740
 Frc consts  --     0.9175                 1.2753                 0.8079
 IR Inten    --     2.7442                 4.8018                 5.5241

                    28                     29                     30
                     A                      A                      A
 Frequencies --   589.6557               606.5959               608.5147
 Red. masses --     4.5988                 5.4007                 7.2953
 Frc consts  --     0.9421                 1.1708                 1.5916
 IR Inten    --     8.2567                 3.9633                 1.6767

                    31                     32                     33
                     A                      A                      A
 Frequencies --   621.8686               641.5891               671.2844
 Red. masses --     3.2816                 5.2457                 6.7497
 Frc consts  --     0.7477                 1.2722                 1.7920
 IR Inten    --    17.6756                 2.2483                 6.0261

                    34                     35                     36
                     A                      A                      A
 Frequencies --   682.5870               702.4156               711.0781
 Red. masses --     1.5819                 7.6495                 2.9509
 Frc consts  --     0.4343                 2.2237                 0.8791
 IR Inten    --     0.4717                 0.1569                12.7764

                    37                     38                     39
                     A                      A                      A
 Frequencies --   741.7570               772.4278               778.7264
 Red. masses --     1.3478                 9.6176                 2.8968
 Frc consts  --     0.4369                 3.3809                 1.0350
 IR Inten    --    14.5885                14.1761                27.8889

                    40                     41                     42
                     A                      A                      A
 Frequencies --   784.9989               824.6036               825.1404
 Red. masses --     5.5097                 2.7918                 8.6413
 Frc consts  --     2.0004                 1.1185                 3.4665
 IR Inten    --     3.8270                28.6354                18.5860

                    43                     44                     45
                     A                      A                      A
 Frequencies --   829.4397               844.9222               855.9855
 Red. masses --     7.7607                10.5140                 8.7094
 Frc consts  --     3.1457                 4.4223                 3.7599
 IR Inten    --    62.7123                14.3775                22.3270

                    46                     47                     48
                     A                      A                      A
 Frequencies --   905.2120               910.2779               914.0316
 Red. masses --     5.0184                 5.0402                 1.6047
 Frc consts  --     2.4228                 2.4606                 0.7899
 IR Inten    --    36.3958                15.4695                12.1856

                    49                     50                     51
                     A                      A                      A
 Frequencies --   940.6883               957.9721               970.3569
 Red. masses --     4.2620                 1.9970                 1.5461
 Frc consts  --     2.2221                 1.0798                 0.8577
 IR Inten    --     6.1419                 8.3401                 2.5214

                    52                     53                     54
                     A                      A                      A
 Frequencies --   972.6015              1013.6664              1078.1428
 Red. masses --     1.3625                 4.0385                 2.7670
 Frc consts  --     0.7594                 2.4449                 1.8950
 IR Inten    --     0.1824                 1.2028                53.0975

                    55                     56                     57
                     A                      A                      A
 Frequencies --  1107.7316              1112.6305              1132.5210
 Red. masses --     5.6476                 3.0244                 2.7934
 Frc consts  --     4.0831                 2.2059                 2.1110
 IR Inten    --     0.7807                 3.9686                21.3589

                    58                     59                     60
                     A                      A                      A
 Frequencies --  1144.1670              1166.6075              1180.4240
 Red. masses --     2.3711                 1.8637                 2.0225
 Frc consts  --     1.8289                 1.4944                 1.6604
 IR Inten    --     8.9167                 2.9516                 8.1138

                    61                     62                     63
                     A                      A                      A
 Frequencies --  1183.0743              1231.4881              1246.2988
 Red. masses --     2.4008                 1.9590                 1.3466
 Frc consts  --     1.9798                 1.7504                 1.2323
 IR Inten    --     0.7812                20.9461                 5.7930

                    64                     65                     66
                     A                      A                      A
 Frequencies --  1254.6044              1286.2672              1299.2326
 Red. masses --     1.5680                 1.7528                 1.9393
 Frc consts  --     1.4542                 1.7086                 1.9287
 IR Inten    --     8.5627                 1.6143                11.6659

                    67                     68                     69
                     A                      A                      A
 Frequencies --  1307.0235              1324.2245              1370.4752
 Red. masses --     2.1892                 2.1475                 3.1331
 Frc consts  --     2.2035                 2.2187                 3.4671
 IR Inten    --    10.4934                 2.8247                12.3841

                    70                     71                     72
                     A                      A                      A
 Frequencies --  1374.4952              1380.3230              1388.6014
 Red. masses --     5.4570                 3.9655                 1.6377
 Frc consts  --     6.0742                 4.4515                 1.8605
 IR Inten    --     1.1306                 5.2215                 4.4801

                    73                     74                     75
                     A                      A                      A
 Frequencies --  1432.1775              1444.5122              1447.5144
 Red. masses --     2.1023                 3.6424                 3.7251
 Frc consts  --     2.5406                 4.4780                 4.5987
 IR Inten    --    13.5446                 2.4953                 4.0547

                    76                     77                     78
                     A                      A                      A
 Frequencies --  1463.2489              1483.4712              1513.1613
 Red. masses --     6.3686                 1.1167                 6.5131
 Frc consts  --     8.0339                 1.4480                 8.7864
 IR Inten    --     2.3427                 3.0029                14.3029

                    79                     80                     81
                     A                      A                      A
 Frequencies --  1543.7872              1556.1124              1557.5060
 Red. masses --     7.6262                 6.1990                 6.2756
 Frc consts  --    10.7086                 8.8441                 8.9694
 IR Inten    --    22.2509                10.4474                 6.8889

                    82                     83                     84
                     A                      A                      A
 Frequencies --  1585.8489              1622.7124              1671.1572
 Red. masses --     5.5768                 6.2451                 7.8637
 Frc consts  --     8.2633                 9.6888                12.9393
 IR Inten    --     9.6238                29.0050                 2.5484

                    85                     86                     87
                     A                      A                      A
 Frequencies --  3046.1815              3084.3483              3104.0410
 Red. masses --     1.0579                 1.0993                 1.0918
 Frc consts  --     5.7835                 6.1615                 6.1978
 IR Inten    --    20.5134                 0.9581                 8.6511

                    88                     89                     90
                     A                      A                      A
 Frequencies --  3181.6333              3187.8661              3191.9783
 Red. masses --     1.0896                 1.0931                 1.0867
 Frc consts  --     6.4983                 6.5448                 6.5236
 IR Inten    --    19.6358                 1.9209                 0.5090

                    91                     92                     93
                     A                      A                      A
 Frequencies --  3208.8121              3295.6328              3303.8700
 Red. masses --     1.0961                 1.0959                 1.0991
 Frc consts  --     6.6493                 7.0131                 7.0687
 IR Inten    --    16.8624                 0.0539                 0.6719

 - Thermochemistry -
 -------------------
 Temperature   298.150 Kelvin.  Pressure   1.00000 Atm.
 Atom     1 has atomic number  6 and mass  12.00000

 Molecular mass:   414.93523 amu.
 Principal axes and moments of inertia in atomic units:
                           1         2         3
     Eigenvalues --  4422.17705********************
           X            0.99998   0.00115  -0.00645
           Y           -0.00099   0.99969   0.02495
           Z            0.00648  -0.02495   0.99967
 This molecule is an asymmetric top.
 Rotational symmetry number  1.
 Warning -- assumption of classical behavior for rotation
           may cause significant error
 Rotational temperatures (Kelvin)      0.01959     0.00455     0.00432
 Rotational constants (GHZ):           0.40811     0.09482     0.08991
 Zero-point vibrational energy     593094.5 (Joules/Mol)
                                  141.75298 (Kcal/Mol)
 Warning -- explicit consideration of  30 degrees of freedom as
           vibrations may cause significant error
 Vibrational temperatures:     26.17    43.01    67.61   107.16   134.53
          (Kelvin)            156.69   221.64   250.72   270.91   301.35
                              316.97   332.84   388.75   398.91   412.97
                              485.40   505.25   563.64   572.40   637.66
                              688.48   717.82   735.56   759.51   766.26
                              792.20   834.73   848.38   872.76   875.52
                              894.73   923.10   965.83   982.09  1010.62
                             1023.08  1067.22  1111.35  1120.41  1129.44
                             1186.42  1187.19  1193.38  1215.65  1231.57
                             1302.40  1309.69  1315.09  1353.44  1378.31
                             1396.13  1399.35  1458.44  1551.21  1593.78
                             1600.83  1629.44  1646.20  1678.49  1698.36
                             1702.18  1771.83  1793.14  1805.09  1850.65
                             1869.30  1880.51  1905.26  1971.81  1977.59
                             1985.97  1997.89  2060.58  2078.33  2082.65
                             2105.29  2134.38  2177.10  2221.16  2238.90
                             2240.90  2281.68  2334.72  2404.42  4382.77
                             4437.68  4466.02  4577.65  4586.62  4592.54
                             4616.76  4741.67  4753.53

 Zero-point correction=                           0.225898 (Hartree/Particle)
 Thermal correction to Energy=                    0.244068
 Thermal correction to Enthalpy=                  0.245012
 Thermal correction to Gibbs Free Energy=         0.177351
 Sum of electronic and zero-point Energies=          -4088.272591
 Sum of electronic and thermal Energies=             -4088.254420
 Sum of electronic and thermal Enthalpies=           -4088.253476
 Sum of electronic and thermal Free Energies=        -4088.321137

                     E (Thermal)             CV                S
                      KCal/Mol        Cal/Mol-Kelvin    Cal/Mol-Kelvin
 Total                  153.155             71.946            142.405
 Electronic               0.000              0.000              0.000
 Translational            0.889              2.981             43.960
 Rotational               0.889              2.981             35.778
 Vibrational            151.378             65.984             62.668
 Vibration     1          0.593              1.986              6.823
 Vibration     2          0.594              1.984              5.836
 Vibration     3          0.595              1.979              4.940
 Vibration     4          0.599              1.966              4.031
 Vibration     5          0.603              1.954              3.585
 Vibration     6          0.606              1.942              3.288
 Vibration     7          0.620              1.898              2.622
 Vibration     8          0.627              1.874              2.389
 Vibration     9          0.633              1.856              2.245
 Vibration    10          0.642              1.826              2.049
 Vibration    11          0.647              1.810              1.957
 Vibration    12          0.653              1.793              1.869
 Vibration    13          0.674              1.728              1.595
 Vibration    14          0.678              1.716              1.551
 Vibration    15          0.684              1.698              1.491
 Vibration    16          0.718              1.601              1.225
 Vibration    17          0.728              1.573              1.161
 Vibration    18          0.759              1.488              0.993
 Vibration    19          0.764              1.475              0.971
 Vibration    20          0.803              1.376              0.817
 Vibration    21          0.835              1.298              0.714
 Vibration    22          0.854              1.252              0.661
 Vibration    23          0.866              1.225              0.631
 Vibration    24          0.883              1.188              0.592
 Vibration    25          0.888              1.178              0.581
 Vibration    26          0.906              1.138              0.543
 Vibration    27          0.937              1.074              0.485
 Vibration    28          0.947              1.054              0.468
 Vibration    29          0.965              1.018              0.438
 Vibration    30          0.967              1.014              0.435

 Optimization completed.
    -- Stationary point found.
 Normal termination of Gaussian 09 at Sun Dec 29 17:33:42 2013.
