 Gaussian 09, Revision C.01,
 Gaussian 09:  EM64L-G09RevC.01 23-Sep-2011

 --------------------------------------------
 #B3LYP/6-31++G(d,p) opt scf=direct freq test
 --------------------------------------------

 Geom opt of No.44 candidate from the CEPDB database with SMILE code of
  c1nc(sc1-c1ccc(-c2cccc3cscc23)c2cocc12)-c1cncc2nsnc12, HPC, 20131227,
  Shuo Dai, Gaussian09
 ----------------------------------------------------------------------
 Charge =  0 Multiplicity = 1

 SCF Done:  E(RB3LYP) =  -2410.38421513     A.U. after   28 cycles
 SCF Done:  E(RB3LYP) =  -2410.45769257     A.U. after   59 cycles
 SCF Done:  E(RB3LYP) =  -2410.51858511     A.U. after   34 cycles
 SCF Done:  E(RB3LYP) =  -2410.54348135     A.U. after   22 cycles
 SCF Done:  E(RB3LYP) =  -2410.55669639     A.U. after   20 cycles
 SCF Done:  E(RB3LYP) =  -2410.56415575     A.U. after   18 cycles
 SCF Done:  E(RB3LYP) =  -2410.56655627     A.U. after   17 cycles
 SCF Done:  E(RB3LYP) =  -2410.56734861     A.U. after   17 cycles
 SCF Done:  E(RB3LYP) =  -2410.56781735     A.U. after   17 cycles
 SCF Done:  E(RB3LYP) =  -2410.56813491     A.U. after   18 cycles
 SCF Done:  E(RB3LYP) =  -2410.56872664     A.U. after   17 cycles
 SCF Done:  E(RB3LYP) =  -2410.56878412     A.U. after   14 cycles
 SCF Done:  E(RB3LYP) =  -2410.56881369     A.U. after   14 cycles
 SCF Done:  E(RB3LYP) =  -2410.56883810     A.U. after   14 cycles
 SCF Done:  E(RB3LYP) =  -2410.56885155     A.U. after   14 cycles
 SCF Done:  E(RB3LYP) =  -2410.56885711     A.U. after   14 cycles
 SCF Done:  E(RB3LYP) =  -2410.56885968     A.U. after   14 cycles
 SCF Done:  E(RB3LYP) =  -2410.56885998     A.U. after   12 cycles
 SCF Done:  E(RB3LYP) =  -2410.56886005     A.U. after   11 cycles
 Optimization completed.
    -- Stationary point found.
 Normal termination of Gaussian 09 at Sun Dec 29 11:09:10 2013.

 ----------------------------------------------------------------------
 #N Geom=AllCheck Guess=TCheck SCRF=Check Test GenChk RB3LYP/6-31++G(d,
 p) Freq
 ----------------------------------------------------------------------

 Geom opt of No.44 candidate from the CEPDB database with SMILE code of
  c1nc(sc1-c1ccc(-c2cccc3cscc23)c2cocc12)-c1cncc2nsnc12, HPC, 20131227,
  Shuo Dai, Gaussian09
 ----------------------------------------------------------------------
 Charge =  0 Multiplicity = 1

                         Standard orientation:
 ---------------------------------------------------------------------
 Center     Atomic      Atomic             Coordinates (Angstroms)
 Number     Number       Type             X           Y           Z
 ---------------------------------------------------------------------
      1          6           0       -1.829262   -1.085479    1.079359
      2          7           0       -3.174683   -0.859955    1.071941
      3          6           0       -3.504126    0.061759    0.203218
      4         16           0       -2.128989    0.705033   -0.703984
      5          6           0       -1.063097   -0.349021    0.198498
      6          6           0        0.381781   -0.432839   -0.019127
      7          6           0        1.030905   -1.649995    0.048080
      8          6           0        2.442484   -1.785804   -0.124769
      9          6           0        3.270361   -0.714402   -0.380928
     10          6           0        4.728607   -0.898798   -0.594490
     11          6           0        5.185566   -1.748453   -1.578611
     12          6           0        6.579698   -1.957929   -1.824590
     13          6           0        7.535707   -1.319230   -1.080740
     14          6           0        7.127107   -0.439119   -0.029922
     15          6           0        7.931474    0.264106    0.856503
     16         16           0        6.990343    1.156828    1.980335
     17          6           0        5.504058    0.625446    1.303797
     18          6           0        5.709760   -0.222208    0.223108
     19          6           0        2.638610    0.575164   -0.474012
     20          6           0        3.115535    1.839588   -0.741915
     21          8           0        2.089972    2.727442   -0.725919
     22          6           0        0.935701    2.063519   -0.455854
     23          6           0        1.200120    0.720570   -0.296076
     24          6           0       -4.863223    0.553411   -0.025159
     25          6           0       -5.112330    1.850311   -0.445950
     26          7           0       -6.341910    2.401178   -0.682912
     27          6           0       -7.418344    1.674289   -0.496197
     28          6           0       -7.326506    0.317891   -0.062935
     29          7           0       -8.350085   -0.523863    0.136363
     30         16           0       -7.674309   -1.951039    0.583378
     31          7           0       -6.082557   -1.554429    0.540640
     32          6           0       -6.025605   -0.267690    0.174971
     33          1           0       -1.418660   -1.798988    1.783885
     34          1           0        0.447828   -2.549193    0.220901
     35          1           0        2.876116   -2.778178   -0.045426
     36          1           0        4.462218   -2.259377   -2.207353
     37          1           0        6.872425   -2.631441   -2.624642
     38          1           0        8.593170   -1.475630   -1.272260
     39          1           0        9.011367    0.287774    0.902411
     40          1           0        4.567382    0.953958    1.729134
     41          1           0        4.094036    2.241990   -0.945373
     42          1           0        0.045408    2.667933   -0.408409
     43          1           0       -4.279573    2.531628   -0.597256
     44          1           0       -8.389445    2.125800   -0.683698
 ---------------------------------------------------------------------

 SCF Done:  E(RB3LYP) =  -2410.56886005     A.U. after    2 cycles

 The electronic state is 1-A.
 Alpha  occ. eigenvalues --  -88.99788 -88.93536 -88.93481 -19.24772 -14.39726
 Alpha  occ. eigenvalues --  -14.39187 -14.36513 -14.35494 -10.27685 -10.27065
 Alpha  occ. eigenvalues --  -10.26461 -10.25849 -10.25544 -10.25445 -10.25190
 Alpha  occ. eigenvalues --  -10.24843 -10.24609 -10.23518 -10.23302 -10.22768
 Alpha  occ. eigenvalues --  -10.22649 -10.22465 -10.21952 -10.21787 -10.21712
 Alpha  occ. eigenvalues --  -10.21589 -10.21489 -10.21326 -10.20879 -10.20802
 Alpha  occ. eigenvalues --  -10.20561 -10.20506  -8.05111  -7.99419  -7.99409
 Alpha  occ. eigenvalues --   -6.01657  -6.01069  -6.00890  -5.95812  -5.95802
 Alpha  occ. eigenvalues --   -5.95466  -5.95424  -5.95232  -5.95134  -1.13677
 Alpha  occ. eigenvalues --   -1.04338  -0.98314  -0.96691  -0.91469  -0.90806
 Alpha  occ. eigenvalues --   -0.88581  -0.84965  -0.83540  -0.82815  -0.80301
 Alpha  occ. eigenvalues --   -0.79837  -0.79047  -0.77087  -0.75812  -0.74765
 Alpha  occ. eigenvalues --   -0.73618  -0.71245  -0.68901  -0.66719  -0.64947
 Alpha  occ. eigenvalues --   -0.64288  -0.62829  -0.62544  -0.60911  -0.59299
 Alpha  occ. eigenvalues --   -0.58946  -0.57763  -0.56642  -0.54368  -0.53673
 Alpha  occ. eigenvalues --   -0.53448  -0.52511  -0.51049  -0.50071  -0.48872
 Alpha  occ. eigenvalues --   -0.48549  -0.47782  -0.47691  -0.47382  -0.46546
 Alpha  occ. eigenvalues --   -0.45795  -0.45527  -0.44567  -0.44187  -0.43100
 Alpha  occ. eigenvalues --   -0.42849  -0.42722  -0.42067  -0.41152  -0.40357
 Alpha  occ. eigenvalues --   -0.40297  -0.39391  -0.38915  -0.38418  -0.38249
 Alpha  occ. eigenvalues --   -0.37637  -0.36713  -0.36178  -0.35636  -0.35197
 Alpha  occ. eigenvalues --   -0.34639  -0.34478  -0.32502  -0.31686  -0.30215
 Alpha  occ. eigenvalues --   -0.29647  -0.29271  -0.28794  -0.28374  -0.28182
 Alpha  occ. eigenvalues --   -0.27998  -0.26068  -0.24491  -0.21586  -0.20696
 Alpha virt. eigenvalues --   -0.11778  -0.08288  -0.06818  -0.05236  -0.02959
 Alpha virt. eigenvalues --   -0.01584  -0.01141  -0.00955  -0.00627  -0.00224
 Alpha virt. eigenvalues --    0.00066   0.00150   0.00229   0.00464   0.00602

 Mulliken atomic charges:
              1
     1  C   -0.024632
     2  N    0.010457
     3  C   -0.490693
     4  S    0.288714
     5  C   -0.384807
     6  C    0.304854
     7  C   -0.284911
     8  C   -0.241293
     9  C   -0.440488
    10  C   -0.186191
    11  C   -0.122842
    12  C   -0.106328
    13  C   -0.669947
    14  C    0.187709
    15  C    0.466163
    16  S    0.060105
    17  C   -0.038335
    18  C   -0.248481
    19  C    0.253694
    20  C    0.112718
    21  O   -0.165905
    22  C    0.303640
    23  C   -0.229010
    24  C   -0.115930
    25  C   -0.692185
    26  N   -0.093260
    27  C   -0.195561
    28  C    0.389255
    29  N   -0.429506
    30  S    0.896426
    31  N   -0.380353
    32  C    0.350584
    33  H    0.172976
    34  H    0.119805
    35  H    0.141588
    36  H    0.147570
    37  H    0.120538
    38  H    0.077088
    39  H    0.194000
    40  H    0.194714
    41  H    0.178146
    42  H    0.180680
    43  H    0.204505
    44  H    0.184728
 Sum of Mulliken atomic charges =  -0.00000

 Dipole moment (field-independent basis, Debye):
    X=              2.8253    Y=             -1.1854    Z=             -0.3191  Tot=              3.0805
 Quadrupole moment (field-independent basis, Debye-Ang):
   XX=           -188.6657   YY=           -202.9414   ZZ=           -205.7159
   XY=              3.1605   XZ=             -1.6648   YZ=              4.6957

  Exact polarizability: 714.099 -10.406 344.037  -8.598   3.152 247.999
 Approx polarizability: 960.125 -23.873 696.023 -19.508 -11.979 457.563

                     1                      2                      3
                     A                      A                      A
 Frequencies --    12.3751                16.0675                24.4792
 Red. masses --    11.0964                 8.1253                 9.8105
 Frc consts  --     0.0010                 0.0012                 0.0035
 IR Inten    --     0.0627                 0.0014                 0.0308

                     4                      5                      6
                     A                      A                      A
 Frequencies --    36.2748                52.8369                55.1471
 Red. masses --     7.2483                 8.1362                11.1085
 Frc consts  --     0.0056                 0.0134                 0.0199
 IR Inten    --     0.1232                 0.2774                 0.3195

                     7                      8                      9
                     A                      A                      A
 Frequencies --    64.9338                91.2283               100.3989
 Red. masses --     6.5097                 7.6890                 9.2180
 Frc consts  --     0.0162                 0.0377                 0.0547
 IR Inten    --     0.3345                 0.3600                 0.3514

                    10                     11                     12
                     A                      A                      A
 Frequencies --   140.3468               156.5500               168.3868
 Red. masses --     7.3589                 7.0418                 5.5965
 Frc consts  --     0.0854                 0.1017                 0.0935
 IR Inten    --     0.0420                 0.1356                 1.3776

                    13                     14                     15
                     A                      A                      A
 Frequencies --   189.6089               203.1040               203.2793
 Red. masses --     6.2318                 5.7273                 6.2878
 Frc consts  --     0.1320                 0.1392                 0.1531
 IR Inten    --     0.6989                 2.2310                 0.6011

                    16                     17                     18
                     A                      A                      A
 Frequencies --   226.6562               233.5535               254.6920
 Red. masses --     6.0626                 9.3439                 6.6900
 Frc consts  --     0.1835                 0.3003                 0.2557
 IR Inten    --     0.8880                 0.7927                 3.1374

                    19                     20                     21
                     A                      A                      A
 Frequencies --   265.2510               287.8165               306.3747
 Red. masses --     5.8807                 6.0449                 5.9085
 Frc consts  --     0.2438                 0.2950                 0.3268
 IR Inten    --     4.1466                 3.1118                 3.1156

                    22                     23                     24
                     A                      A                      A
 Frequencies --   354.4706               379.5159               399.2300
 Red. masses --     8.2941                 5.6724                 7.1163
 Frc consts  --     0.6140                 0.4814                 0.6683
 IR Inten    --     0.8903                 1.5142                 0.9200

                    25                     26                     27
                     A                      A                      A
 Frequencies --   437.7532               441.9411               453.8039
 Red. masses --     5.4660                 6.8564                 6.2555
 Frc consts  --     0.6171                 0.7890                 0.7590
 IR Inten    --     2.1875                 5.4651                 0.3099

                    28                     29                     30
                     A                      A                      A
 Frequencies --   489.4247               492.5558               512.5242
 Red. masses --     7.0743                 8.3692                 7.3246
 Frc consts  --     0.9984                 1.1963                 1.1336
 IR Inten    --     7.0324                 0.6234                15.4994

                    31                     32                     33
                     A                      A                      A
 Frequencies --   536.3570               545.1931               547.5526
 Red. masses --    10.2982                 3.9587                 5.3220
 Frc consts  --     1.7455                 0.6933                 0.9401
 IR Inten    --     3.3483                 3.9895                 4.5851

                    34                     35                     36
                     A                      A                      A
 Frequencies --   571.0194               581.0028               587.7115
 Red. masses --     5.7152                 7.2645                 4.4864
 Frc consts  --     1.0980                 1.4448                 0.9130
 IR Inten    --     2.7215                 2.0444                 7.5503

                    37                     38                     39
                     A                      A                      A
 Frequencies --   589.4072               598.4696               608.8739
 Red. masses --     5.2108                 5.7285                 6.1799
 Frc consts  --     1.0666                 1.2089                 1.3499
 IR Inten    --     3.3415                 2.1111                 0.4731

                    40                     41                     42
                     A                      A                      A
 Frequencies --   614.4920               618.4223               644.0823
 Red. masses --     5.6826                 4.0596                 5.0780
 Frc consts  --     1.2642                 0.9148                 1.2411
 IR Inten    --     6.2590                17.4217                 1.9590

                    43                     44                     45
                     A                      A                      A
 Frequencies --   645.5568               656.5038               666.8626
 Red. masses --     1.3706                 7.6815                 2.9399
 Frc consts  --     0.3365                 1.9506                 0.7703
 IR Inten    --     1.7413                 2.1736                 1.2158

                    46                     47                     48
                     A                      A                      A
 Frequencies --   675.7578               691.6825               705.7403
 Red. masses --     5.9352                 1.4776                 6.7798
 Frc consts  --     1.5969                 0.4165                 1.9896
 IR Inten    --     0.8781                 1.4048                 5.3184

                    49                     50                     51
                     A                      A                      A
 Frequencies --   718.8001               740.8130               752.8159
 Red. masses --     9.2999                 1.2973                 6.1369
 Frc consts  --     2.8310                 0.4195                 2.0492
 IR Inten    --     9.7143                 2.9314                 1.5905

                    52                     53                     54
                     A                      A                      A
 Frequencies --   760.8045               780.1531               785.1378
 Red. masses --     1.6089                 5.6825                 2.5261
 Frc consts  --     0.5487                 2.0377                 0.9175
 IR Inten    --    50.3230                 3.2213                29.7973

                    55                     56                     57
                     A                      A                      A
 Frequencies --   794.3157               816.7027               821.9943
 Red. masses --     2.8516                 2.5005                10.6877
 Frc consts  --     1.0600                 0.9827                 4.2547
 IR Inten    --    29.9844                39.1460                24.8433

                    58                     59                     60
                     A                      A                      A
 Frequencies --   827.0823               836.7084               859.7989
 Red. masses --     5.4101                12.6058                 2.1683
 Frc consts  --     2.1805                 5.1996                 0.9444
 IR Inten    --     3.6243                56.1727                32.1315

                    61                     62                     63
                     A                      A                      A
 Frequencies --   865.8093               878.6231               880.5220
 Red. masses --     2.4280                 7.3325                 1.4874
 Frc consts  --     1.0724                 3.3351                 0.6794
 IR Inten    --    10.2375                31.6601                 3.4928

                    64                     65                     66
                     A                      A                      A
 Frequencies --   881.0238               895.8096               908.5188
 Red. masses --     4.1260                 4.3040                 1.4650
 Frc consts  --     1.8869                 2.0350                 0.7124
 IR Inten    --    35.7563                12.8951                15.6773

                    67                     68                     69
                     A                      A                      A
 Frequencies --   912.4006               918.8459               920.9324
 Red. masses --     4.3511                 2.6861                 2.1873
 Frc consts  --     2.1341                 1.3362                 1.0930
 IR Inten    --     9.7673                 0.3843                 1.6461

                    70                     71                     72
                     A                      A                      A
 Frequencies --   927.1229               951.6577               959.8139
 Red. masses --     7.2043                 1.4148                 1.4973
 Frc consts  --     3.6485                 0.7550                 0.8127
 IR Inten    --    11.0165                 0.0097                 0.2799

                    73                     74                     75
                     A                      A                      A
 Frequencies --   982.4425              1027.8995              1071.3087
 Red. masses --     1.3117                 3.5202                 2.8355
 Frc consts  --     0.7459                 2.1914                 1.9174
 IR Inten    --     0.4871                 1.3934                 7.4325

                    76                     77                     78
                     A                      A                      A
 Frequencies --  1083.9233              1088.7121              1134.3554
 Red. masses --     2.5535                 2.5435                 3.5067
 Frc consts  --     1.7676                 1.7763                 2.6586
 IR Inten    --     5.6491                41.4238                15.8159

                    79                     80                     81
                     A                      A                      A
 Frequencies --  1142.6391              1146.0840              1177.1541
 Red. masses --     2.3544                 4.7671                 1.2462
 Frc consts  --     1.8112                 3.6892                 1.0174
 IR Inten    --     9.2768                 7.6449                 0.7039

                    82                     83                     84
                     A                      A                      A
 Frequencies --  1187.4147              1192.0822              1212.6787
 Red. masses --     6.3200                 1.4241                 2.2905
 Frc consts  --     5.2502                 1.1924                 1.9846
 IR Inten    --     9.9297                 1.2071                 0.5430

                    85                     86                     87
                     A                      A                      A
 Frequencies --  1218.1942              1242.0301              1252.1307
 Red. masses --     1.6247                 2.1208                 1.4220
 Frc consts  --     1.4205                 1.9276                 1.3135
 IR Inten    --     6.3265                 6.8706                 2.2771

                    88                     89                     90
                     A                      A                      A
 Frequencies --  1289.8086              1305.6668              1313.8288
 Red. masses --     2.3934                 2.6548                 1.7132
 Frc consts  --     2.3460                 2.6666                 1.7423
 IR Inten    --     0.5778                12.8611                 1.8034

                    91                     92                     93
                     A                      A                      A
 Frequencies --  1319.3450              1327.5710              1356.0278
 Red. masses --     1.8334                 2.8506                 2.9136
 Frc consts  --     1.8803                 2.9601                 3.1566
 IR Inten    --     2.8936                 5.0874                10.7089

                    94                     95                     96
                     A                      A                      A
 Frequencies --  1369.8093              1370.7690              1374.7673
 Red. masses --     5.3632                 4.1444                 3.1919
 Frc consts  --     5.9292                 4.5881                 3.5543
 IR Inten    --    17.8686                 9.3432                 3.5131

                    97                     98                     99
                     A                      A                      A
 Frequencies --  1388.0508              1394.9568              1399.7070
 Red. masses --     2.7948                 4.7809                 4.4460
 Frc consts  --     3.1726                 5.4812                 5.1321
 IR Inten    --    33.6619                11.1098                 4.8731

                   100                    101                    102
                     A                      A                      A
 Frequencies --  1411.8241              1423.7513              1461.3239
 Red. masses --     3.7341                 3.0390                 3.4659
 Frc consts  --     4.3853                 3.6295                 4.3607
 IR Inten    --    12.8871                 7.2849                 5.5112

                   103                    104                    105
                     A                      A                      A
 Frequencies --  1481.9225              1485.0494              1510.9912
 Red. masses --     4.8746                 7.8503                 7.1711
 Frc consts  --     6.3072                10.2005                 9.6463
 IR Inten    --    14.0969                37.6095                19.1713

                   106                    107                    108
                     A                      A                      A
 Frequencies --  1539.7782              1549.3287              1559.7729
 Red. masses --     5.2007                 4.9636                 6.5751
 Frc consts  --     7.2648                 7.0200                 9.4249
 IR Inten    --    20.3571                 0.2635                 2.5972

                   109                    110                    111
                     A                      A                      A
 Frequencies --  1570.1537              1585.3757              1593.6271
 Red. masses --     5.9091                 4.9682                 6.0511
 Frc consts  --     8.5833                 7.3573                 9.0544
 IR Inten    --     6.5668                 2.6784                 8.3977

                   112                    113                    114
                     A                      A                      A
 Frequencies --  1617.1501              1646.3961              1653.5094
 Red. masses --     6.1663                 6.8847                 6.5122
 Frc consts  --     9.5012                10.9952                10.4903
 IR Inten    --    43.8195                 6.4138                15.0256

                   115                    116                    117
                     A                      A                      A
 Frequencies --  3183.2095              3187.5054              3190.6986
 Red. masses --     1.0860                 1.0894                 1.0884
 Frc consts  --     6.4835                 6.5211                 6.5285
 IR Inten    --     4.7275                15.3614                25.6677

                   118                    119                    120
                     A                      A                      A
 Frequencies --  3191.2806              3194.2145              3205.3376
 Red. masses --     1.0930                 1.0907                 1.0933
 Frc consts  --     6.5582                 6.5564                 6.6179
 IR Inten    --     6.8955                 7.8247                 5.2297

                   121                    122                    123
                     A                      A                      A
 Frequencies --  3206.3549              3230.7814              3263.7061
 Red. masses --     1.0964                 1.0931                 1.0933
 Frc consts  --     6.6413                 6.7223                 6.8612
 IR Inten    --    25.2686                10.1264                 0.6823

                   124                    125                    126
                     A                      A                      A
 Frequencies --  3277.8987              3307.6551              3312.3182
 Red. masses --     1.0934                 1.0948                 1.1002
 Frc consts  --     6.9221                 7.0570                 7.1122
 IR Inten    --     1.1625                 0.9988                 1.3373

 - Thermochemistry -
 -------------------
 Temperature   298.150 Kelvin.  Pressure   1.00000 Atm.
 Atom     1 has atomic number  6 and mass  12.00000

 Molecular mass:   468.01733 amu.
 Principal axes and moments of inertia in atomic units:
                           1         2         3
     Eigenvalues --  4450.97944********************
           X            0.99999  -0.00480  -0.00168
           Y            0.00482   0.99992   0.01145
           Z            0.00162  -0.01146   0.99993
 This molecule is an asymmetric top.
 Rotational symmetry number  1.
 Warning -- assumption of classical behavior for rotation
           may cause significant error
 Rotational temperatures (Kelvin)      0.01946     0.00180     0.00173
 Rotational constants (GHZ):           0.40547     0.03751     0.03611
 Zero-point vibrational energy     799953.3 (Joules/Mol)
                                  191.19342 (Kcal/Mol)
 Warning -- explicit consideration of  41 degrees of freedom as
           vibrations may cause significant error
 Vibrational temperatures:     17.80    23.12    35.22    52.19    76.02
          (Kelvin)             79.34    93.43   131.26   144.45   201.93
                              225.24   242.27   272.80   292.22   292.47
                              326.11   336.03   366.44   381.64   414.10
                              440.80   510.00   546.04   574.40   629.83
                              635.85   652.92   704.17   708.68   737.41
                              771.70   784.41   787.81   821.57   835.93
                              845.58   848.02   861.06   876.03   884.12
                              889.77   926.69   928.81   944.56   959.47
                              972.26   995.18  1015.40  1034.19  1065.86
                             1083.13  1094.63  1122.46  1129.64  1142.84
                             1175.05  1182.66  1189.99  1203.84  1237.06
                             1245.70  1264.14  1266.87  1267.60  1288.87
                             1307.15  1312.74  1322.01  1325.01  1333.92
                             1369.22  1380.96  1413.51  1478.92  1541.37
                             1559.52  1566.41  1632.08  1644.00  1648.96
                             1693.66  1708.42  1715.14  1744.77  1752.71
                             1787.00  1801.53  1855.74  1878.56  1890.30
                             1898.24  1910.08  1951.02  1970.85  1972.23
                             1977.98  1997.09  2007.03  2013.86  2031.30
                             2048.46  2102.52  2132.15  2136.65  2173.98
                             2215.39  2229.14  2244.16  2259.10  2281.00
                             2292.87  2326.72  2368.79  2379.03  4579.92
                             4586.10  4590.70  4591.54  4595.76  4611.76
                             4613.22  4648.37  4695.74  4716.16  4758.97
                             4765.68

 Zero-point correction=                           0.304686 (Hartree/Particle)
 Thermal correction to Energy=                    0.328814
 Thermal correction to Enthalpy=                  0.329758
 Thermal correction to Gibbs Free Energy=         0.247067
 Sum of electronic and zero-point Energies=          -2410.264174
 Sum of electronic and thermal Energies=             -2410.240046
 Sum of electronic and thermal Enthalpies=           -2410.239102
 Sum of electronic and thermal Free Energies=        -2410.321793

                     E (Thermal)             CV                S
                      KCal/Mol        Cal/Mol-Kelvin    Cal/Mol-Kelvin
 Total                  206.334             95.995            174.037
 Electronic               0.000              0.000              0.000
 Translational            0.889              2.981             44.318
 Rotational               0.889              2.981             37.613
 Vibrational            204.556             90.033             92.105
 Vibration     1          0.593              1.987              7.588
 Vibration     2          0.593              1.986              7.069
 Vibration     3          0.593              1.985              6.233
 Vibration     4          0.594              1.982              5.453
 Vibration     5          0.596              1.976              4.708
 Vibration     6          0.596              1.976              4.624
 Vibration     7          0.597              1.971              4.301
 Vibration     8          0.602              1.955              3.634
 Vibration     9          0.604              1.949              3.447
 Vibration    10          0.615              1.913              2.799
 Vibration    11          0.620              1.895              2.591
 Vibration    12          0.625              1.881              2.453
 Vibration    13          0.633              1.854              2.232
 Vibration    14          0.639              1.835              2.105
 Vibration    15          0.639              1.835              2.103
 Vibration    16          0.650              1.800              1.905
 Vibration    17          0.654              1.790              1.851
 Vibration    18          0.665              1.755              1.698
 Vibration    19          0.671              1.737              1.627
 Vibration    20          0.685              1.696              1.487
 Vibration    21          0.697              1.662              1.382
 Vibration    22          0.730              1.566              1.146
 Vibration    23          0.750              1.514              1.041
 Vibration    24          0.765              1.472              0.965
 Vibration    25          0.798              1.388              0.834
 Vibration    26          0.802              1.379              0.821
 Vibration    27          0.812              1.352              0.784
 Vibration    28          0.845              1.273              0.685
 Vibration    29          0.848              1.267              0.677
 Vibration    30          0.868              1.222              0.628
 Vibration    31          0.891              1.170              0.573
 Vibration    32          0.900              1.150              0.554
 Vibration    33          0.903              1.145              0.549
 Vibration    34          0.927              1.094              0.502
 Vibration    35          0.938              1.072              0.484
 Vibration    36          0.945              1.058              0.471
 Vibration    37          0.947              1.054              0.468
 Vibration    38          0.956              1.035              0.452
 Vibration    39          0.968              1.013              0.435
 Vibration    40          0.974              1.001              0.425
 Vibration    41          0.978              0.993              0.419

 Normal termination of Gaussian 09 at Sun Dec 29 13:27:07 2013.
