 Gaussian 09, Revision C.01,
 Gaussian 09:  EM64L-G09RevC.01 23-Sep-2011

 --------------------------------------------
 #B3LYP/6-31++G(d,p) opt scf=direct freq test
 --------------------------------------------

 Geom opt of No.77 candidate from the CEPDB database with SMILE code of
  [SiH2]1ccc2c1c(sc2-c1ccc(cc1)-c1scc2[Se]ccc12)-c1cncc2nsnc12, HPC, 20
 131227, Shuo Dai, Gaussian09
 ----------------------------------------------------------------------
 Charge =  0 Multiplicity = 1

 SCF Done:  E(RB3LYP) =  -4930.10878943     A.U. after   18 cycles
 SCF Done:  E(RB3LYP) =  -4930.55546742     A.U. after   20 cycles
 SCF Done:  E(RB3LYP) =  -4931.17763411     A.U. after   20 cycles
 SCF Done:  E(RB3LYP) =  -4931.66766171     A.U. after   30 cycles
 SCF Done:  E(RB3LYP) =  -4931.75589358     A.U. after   19 cycles
 SCF Done:  E(RB3LYP) =  -4931.86433103     A.U. after   49 cycles
 SCF Done:  E(RB3LYP) =  -4931.97394279     A.U. after   18 cycles
 SCF Done:  E(RB3LYP) =  -4931.99389732     A.U. after   26 cycles
 SCF Done:  E(RB3LYP) =  -4932.00322433     A.U. after   26 cycles
 SCF Done:  E(RB3LYP) =  -4931.99091557     A.U. after   24 cycles
 SCF Done:  E(RB3LYP) =  -4932.00807030     A.U. after   17 cycles
 SCF Done:  E(RB3LYP) =  -4932.00807420     A.U. after   12 cycles
 SCF Done:  E(RB3LYP) =  -4932.00807930     A.U. after   12 cycles
 SCF Done:  E(RB3LYP) =  -4932.00808357     A.U. after   12 cycles
 SCF Done:  E(RB3LYP) =  -4932.00808623     A.U. after   12 cycles
 SCF Done:  E(RB3LYP) =  -4932.00808742     A.U. after   12 cycles
 SCF Done:  E(RB3LYP) =  -4932.00808801     A.U. after   11 cycles
 SCF Done:  E(RB3LYP) =  -4932.00808849     A.U. after   11 cycles
 SCF Done:  E(RB3LYP) =  -4932.00808865     A.U. after   10 cycles
 Optimization completed.
    -- Stationary point found.
 Normal termination of Gaussian 09 at Mon Dec 30 03:33:42 2013.

 ----------------------------------------------------------------------
 #N Geom=AllCheck Guess=TCheck SCRF=Check Test GenChk RB3LYP/6-31++G(d,
 p) Freq
 ----------------------------------------------------------------------

 Geom opt of No.77 candidate from the CEPDB database with SMILE code of
  [SiH2]1ccc2c1c(sc2-c1ccc(cc1)-c1scc2[Se]ccc12)-c1cncc2nsnc12, HPC, 20
 131227, Shuo Dai, Gaussian09
 ----------------------------------------------------------------------
 Charge =  0 Multiplicity = 1

                         Standard orientation:
 ---------------------------------------------------------------------
 Center     Atomic      Atomic             Coordinates (Angstroms)
 Number     Number       Type             X           Y           Z
 ---------------------------------------------------------------------
      1         14           0       -4.402093    2.469686    0.828990
      2          1           0       -5.182238    2.316186    2.080560
      3          1           0       -5.223430    3.125058   -0.215483
      4          6           0       -2.800367    3.426748    1.104414
      5          6           0       -1.737931    2.666961    0.752525
      6          6           0       -2.036767    1.308721    0.274892
      7          6           0       -3.434602    0.937488    0.277118
      8          6           0       -3.631048   -0.382629   -0.075097
      9         16           0       -2.086872   -1.158090   -0.458584
     10          6           0       -1.177380    0.295557   -0.107366
     11          6           0        0.283623    0.305772   -0.251104
     12          6           0        1.068895   -0.791824    0.151962
     13          6           0        2.452261   -0.779367    0.008178
     14          6           0        3.118507    0.338315   -0.532432
     15          6           0        2.331384    1.430262   -0.947352
     16          6           0        0.946591    1.411099   -0.819307
     17          6           0        4.576534    0.342305   -0.681834
     18         16           0        5.327154    1.069311   -2.086948
     19          6           0        6.928622    0.647278   -1.572521
     20          6           0        6.881283   -0.025901   -0.383684
     21         34           0        8.186668   -0.755411    0.777139
     22          6           0        6.731948   -1.222258    1.911847
     23          6           0        5.516928   -0.866910    1.430231
     24          6           0        5.551892   -0.200654    0.145926
     25          6           0       -4.850482   -1.184109   -0.154601
     26          6           0       -4.829641   -2.563493   -0.334580
     27          7           0       -5.912503   -3.391174   -0.432196
     28          6           0       -7.123623   -2.894325   -0.344391
     29          6           0       -7.320539   -1.496132   -0.145636
     30          7           0       -8.495666   -0.862283   -0.035941
     31         16           0       -8.145587    0.725058    0.174036
     32          7           0       -6.501684    0.658226    0.131254
     33          6           0       -6.170205   -0.624657   -0.048575
     34          1           0       -2.665295    4.437870    1.478147
     35          1           0       -0.706106    3.001278    0.827526
     36          1           0        0.588275   -1.663296    0.586650
     37          1           0        3.024500   -1.655238    0.295508
     38          1           0        2.812377    2.306654   -1.371699
     39          1           0        0.367523    2.254914   -1.179673
     40          1           0        7.781114    0.915889   -2.179643
     41          1           0        6.933888   -1.717815    2.852107
     42          1           0        4.600618   -1.049827    1.979039
     43          1           0       -3.876764   -3.079460   -0.405691
     44          1           0       -7.973334   -3.567152   -0.425511
 ---------------------------------------------------------------------

 SCF Done:  E(RB3LYP) =  -4932.00808865     A.U. after    2 cycles

 The electronic state is 1-A.
 Alpha  occ. eigenvalues -- -453.89811 -89.00385 -88.92846 -88.92379 -66.13965
 Alpha  occ. eigenvalues --  -57.49735 -52.17143 -52.17043 -52.16738 -14.40247
 Alpha  occ. eigenvalues --  -14.39964 -14.36434 -10.27407 -10.26764 -10.25582
 Alpha  occ. eigenvalues --  -10.24996 -10.24792 -10.24643 -10.24142 -10.23942
 Alpha  occ. eigenvalues --  -10.23416 -10.23256 -10.23211 -10.22759 -10.22682
 Alpha  occ. eigenvalues --  -10.21807 -10.21463 -10.21236 -10.21233 -10.21194
 Alpha  occ. eigenvalues --  -10.21140 -10.21132 -10.21127 -10.20032 -10.18308
 Alpha  occ. eigenvalues --   -8.05681  -7.98718  -7.98281  -7.74104  -6.02237
 Alpha  occ. eigenvalues --   -6.01654  -6.01442  -5.95149  -5.94765  -5.94728
 Alpha  occ. eigenvalues --   -5.94438  -5.94338  -5.93968  -5.78353  -5.77985
 Alpha  occ. eigenvalues --   -5.77207  -5.28524  -3.64440  -3.64382  -3.64341
 Alpha  occ. eigenvalues --   -2.14016  -2.13955  -2.13287  -2.12994  -2.12886
 Alpha  occ. eigenvalues --   -1.04863  -0.96661  -0.92223  -0.91118  -0.90348
 Alpha  occ. eigenvalues --   -0.87568  -0.83832  -0.83466  -0.81024  -0.80559
 Alpha  occ. eigenvalues --   -0.78795  -0.76700  -0.75692  -0.72876  -0.72799
 Alpha  occ. eigenvalues --   -0.71731  -0.69600  -0.68609  -0.65368  -0.64505
 Alpha  occ. eigenvalues --   -0.63384  -0.62626  -0.59817  -0.59192  -0.57822
 Alpha  occ. eigenvalues --   -0.57174  -0.54877  -0.54671  -0.54161  -0.53260
 Alpha  occ. eigenvalues --   -0.51617  -0.51122  -0.49173  -0.48744  -0.48105
 Alpha  occ. eigenvalues --   -0.47609  -0.46363  -0.46020  -0.44465  -0.43912
 Alpha  occ. eigenvalues --   -0.43803  -0.42877  -0.42538  -0.41932  -0.41615
 Alpha  occ. eigenvalues --   -0.41216  -0.41081  -0.40208  -0.39895  -0.39504
 Alpha  occ. eigenvalues --   -0.38446  -0.37694  -0.37415  -0.36363  -0.35885
 Alpha  occ. eigenvalues --   -0.35716  -0.35460  -0.34827  -0.34080  -0.33900
 Alpha  occ. eigenvalues --   -0.33730  -0.32856  -0.31533  -0.30584  -0.30142
 Alpha  occ. eigenvalues --   -0.30044  -0.28533  -0.28319  -0.27330  -0.26471
 Alpha  occ. eigenvalues --   -0.24935  -0.24684  -0.22225  -0.20306
 Alpha virt. eigenvalues --   -0.12079  -0.07548  -0.05490  -0.04556  -0.03393
 Alpha virt. eigenvalues --   -0.02739  -0.02364  -0.02140  -0.01375  -0.01065
 Alpha virt. eigenvalues --   -0.00804  -0.00566  -0.00286  -0.00054   0.00314

 Mulliken atomic charges:
              1
     1  Si   1.143742
     2  H   -0.122890
     3  H   -0.135585
     4  C   -0.573532
     5  C   -0.370055
     6  C   -0.001928
     7  C    0.113329
     8  C    0.249012
     9  S   -0.147576
    10  C   -0.520316
    11  C    0.451481
    12  C   -0.345759
    13  C   -0.465275
    14  C    0.784412
    15  C   -0.240205
    16  C   -0.268445
    17  C   -0.042891
    18  S    0.017042
    19  C   -0.689818
    20  C   -0.664501
    21  Se   0.112192
    22  C    0.226996
    23  C   -1.208933
    24  C    1.554674
    25  C    0.119917
    26  C   -0.497473
    27  N   -0.108283
    28  C   -0.334628
    29  C    0.575008
    30  N   -0.416098
    31  S    0.871192
    32  N   -0.495972
    33  C   -0.220708
    34  H    0.138529
    35  H    0.126272
    36  H    0.138207
    37  H    0.134045
    38  H    0.114107
    39  H    0.162518
    40  H    0.191834
    41  H    0.175504
    42  H    0.114509
    43  H    0.170785
    44  H    0.185564
 Sum of Mulliken atomic charges =  -0.00000

 Dipole moment (field-independent basis, Debye):
    X=              0.6670    Y=              1.4115    Z=              0.7451  Tot=              1.7299
 Quadrupole moment (field-independent basis, Debye-Ang):
   XX=           -208.9106   YY=           -221.1907   ZZ=           -218.3004
   XY=            -10.0768   XZ=             -1.4545   YZ=             -6.5548

  Exact polarizability: 816.309  -0.258 387.107  -4.980  -5.282 264.271
 Approx polarizability:1095.997 -16.712 753.385 -14.508 -18.111 473.899

                     1                      2                      3
                     A                      A                      A
 Frequencies --    12.0717                16.9150                20.5117
 Red. masses --    12.7465                10.3493                 8.3151
 Frc consts  --     0.0011                 0.0017                 0.0021
 IR Inten    --     0.0948                 0.0079                 0.0254

                     4                      5                      6
                     A                      A                      A
 Frequencies --    30.7124                53.6576                63.4868
 Red. masses --     9.0209                 9.9453                 6.4669
 Frc consts  --     0.0050                 0.0169                 0.0154
 IR Inten    --     0.0598                 0.1094                 0.2072

                     7                      8                      9
                     A                      A                      A
 Frequencies --    72.1801                92.8970                99.1655
 Red. masses --     5.2929                 6.1459                 7.5999
 Frc consts  --     0.0162                 0.0312                 0.0440
 IR Inten    --     1.2809                 0.3576                 0.6901

                    10                     11                     12
                     A                      A                      A
 Frequencies --   119.2503               142.4133               159.7410
 Red. masses --    11.8707                 5.2590                 6.7215
 Frc consts  --     0.0995                 0.0628                 0.1011
 IR Inten    --     0.1959                 0.1287                 0.0501

                    13                     14                     15
                     A                      A                      A
 Frequencies --   178.3500               185.6676               210.3886
 Red. masses --     5.7546                 6.3644                 6.9254
 Frc consts  --     0.1078                 0.1293                 0.1806
 IR Inten    --     0.3372                 0.2456                 0.3936

                    16                     17                     18
                     A                      A                      A
 Frequencies --   219.1793               226.8885               238.8890
 Red. masses --     7.9001                 9.0478                 5.8965
 Frc consts  --     0.2236                 0.2744                 0.1983
 IR Inten    --     5.8402                 0.5000                 0.2119

                    19                     20                     21
                     A                      A                      A
 Frequencies --   248.6616               283.0935               289.9213
 Red. masses --     6.7616                 8.1578                 6.9004
 Frc consts  --     0.2463                 0.3852                 0.3417
 IR Inten    --     1.2393                 4.9173                 0.1316

                    22                     23                     24
                     A                      A                      A
 Frequencies --   301.8237               338.8926               356.0262
 Red. masses --     7.1694                 3.3277                 4.6974
 Frc consts  --     0.3848                 0.2252                 0.3508
 IR Inten    --     0.9687                 0.2269                 0.3426

                    25                     26                     27
                     A                      A                      A
 Frequencies --   381.0416               393.6709               421.1690
 Red. masses --     7.3737                 9.4815                 3.0485
 Frc consts  --     0.6308                 0.8658                 0.3186
 IR Inten    --     3.6403                 1.1121                 1.8876

                    28                     29                     30
                     A                      A                      A
 Frequencies --   425.1215               447.3217               457.5039
 Red. masses --     4.2440                 8.3995                 6.9608
 Frc consts  --     0.4519                 0.9903                 0.8584
 IR Inten    --     2.1818                12.8056                 0.2846

                    31                     32                     33
                     A                      A                      A
 Frequencies --   475.7150               479.4009               489.0922
 Red. masses --     6.9989                 7.6977                 5.3866
 Frc consts  --     0.9332                 1.0423                 0.7592
 IR Inten    --     5.7257                 7.6336                 1.0963

                    34                     35                     36
                     A                      A                      A
 Frequencies --   496.3174               503.7575               528.2204
 Red. masses --     6.7664                 9.8650                 5.1278
 Frc consts  --     0.9820                 1.4750                 0.8430
 IR Inten    --     7.2229                13.1847                10.0138

                    37                     38                     39
                     A                      A                      A
 Frequencies --   540.5732               555.9895               574.3299
 Red. masses --     4.8422                 7.3653                 3.0447
 Frc consts  --     0.8337                 1.3415                 0.5917
 IR Inten    --    13.9066                31.7495                11.2088

                    40                     41                     42
                     A                      A                      A
 Frequencies --   581.6023               607.7147               616.1875
 Red. masses --     4.4080                 2.2993                 8.2530
 Frc consts  --     0.8785                 0.5003                 1.8462
 IR Inten    --     7.4395                24.3020                 0.7949

                    43                     44                     45
                     A                      A                      A
 Frequencies --   623.5165               627.1378               651.5111
 Red. masses --     5.7635                 2.3305                 4.5360
 Frc consts  --     1.3202                 0.5400                 1.1344
 IR Inten    --    29.1679                11.1669                 1.8537

                    46                     47                     48
                     A                      A                      A
 Frequencies --   659.5384               659.9941               679.7434
 Red. masses --     7.1460                 3.6796                 1.5234
 Frc consts  --     1.8314                 0.9443                 0.4147
 IR Inten    --     3.5874                 3.5180                20.3871

                    49                     50                     51
                     A                      A                      A
 Frequencies --   704.9257               722.8518               727.7862
 Red. masses --     8.4032                 3.2149                 1.5107
 Frc consts  --     2.4602                 0.9897                 0.4714
 IR Inten    --    24.7586                 1.7821                36.0706

                    52                     53                     54
                     A                      A                      A
 Frequencies --   742.4505               752.7749               765.3216
 Red. masses --     2.7516                 2.3435                 2.0013
 Frc consts  --     0.8936                 0.7824                 0.6906
 IR Inten    --    29.9757                23.3335                17.0821

                    55                     56                     57
                     A                      A                      A
 Frequencies --   773.0686               776.5048               802.6232
 Red. masses --     5.7103                 4.0976                 1.6977
 Frc consts  --     2.0107                 1.4557                 0.6444
 IR Inten    --     4.3554                 3.1339                32.1025

                    58                     59                     60
                     A                      A                      A
 Frequencies --   806.6387               807.8028               811.6823
 Red. masses --     4.8434                 3.8270                 5.8138
 Frc consts  --     1.8568                 1.4714                 2.2567
 IR Inten    --    44.1716                 0.4431                26.6369

                    61                     62                     63
                     A                      A                      A
 Frequencies --   830.1983               835.3307               851.0657
 Red. masses --    11.2175                 9.5647                 1.3639
 Frc consts  --     4.5552                 3.9322                 0.5821
 IR Inten    --    56.1817                32.5737                 3.2559

                    64                     65                     66
                     A                      A                      A
 Frequencies --   854.6838               860.7946               869.1742
 Red. masses --     2.0813                 5.4712                 4.0362
 Frc consts  --     0.8958                 2.3885                 1.7965
 IR Inten    --    27.3708                33.8554                32.7998

                    67                     68                     69
                     A                      A                      A
 Frequencies --   870.5605               895.7689               912.6598
 Red. masses --     2.2974                 1.4706                 7.2128
 Frc consts  --     1.0259                 0.6952                 3.5398
 IR Inten    --    95.7233                16.9294                12.3469

                    70                     71                     72
                     A                      A                      A
 Frequencies --   917.0280               943.5664               947.4303
 Red. masses --     1.3018                 5.6245                 1.4851
 Frc consts  --     0.6450                 2.9504                 0.7854
 IR Inten    --     0.5568                10.6417                 5.6718

                    73                     74                     75
                     A                      A                      A
 Frequencies --   949.1567               957.9560               978.2127
 Red. masses --     1.0855                 6.6091                 1.3820
 Frc consts  --     0.5762                 3.5734                 0.7792
 IR Inten    --   152.8105                 5.2939                 0.9476

                    76                     77                     78
                     A                      A                      A
 Frequencies --   989.7709              1002.1423              1010.5402
 Red. masses --     1.3566                 1.2977                 3.8599
 Frc consts  --     0.7830                 0.7679                 2.3224
 IR Inten    --     0.3107                 0.1402                 2.6848

                    79                     80                     81
                     A                      A                      A
 Frequencies --  1014.3105              1041.1567              1107.1124
 Red. masses --     5.1899                 2.3936                 1.1219
 Frc consts  --     3.1460                 1.5287                 0.8102
 IR Inten    --     9.6956                 1.4925                 1.4399

                    82                     83                     84
                     A                      A                      A
 Frequencies --  1114.3881              1146.7903              1149.7571
 Red. masses --     1.2442                 2.0335                 1.9061
 Frc consts  --     0.9103                 1.5757                 1.4846
 IR Inten    --     2.1612                 0.6285                14.1532

                    85                     86                     87
                     A                      A                      A
 Frequencies --  1163.4234              1197.3340              1216.9064
 Red. masses --     6.6407                 1.5004                 1.1447
 Frc consts  --     5.2959                 1.2674                 0.9987
 IR Inten    --    11.8914                14.0556                 1.7694

                    88                     89                     90
                     A                      A                      A
 Frequencies --  1265.8353              1271.5635              1297.3889
 Red. masses --     3.2534                 2.8809                 3.0198
 Frc consts  --     3.0715                 2.7444                 2.9948
 IR Inten    --    23.7247                13.3401                45.2958

                    91                     92                     93
                     A                      A                      A
 Frequencies --  1309.1077              1316.8207              1323.5395
 Red. masses --     3.2318                 3.2007                 2.1179
 Frc consts  --     3.2632                 3.2700                 2.1859
 IR Inten    --     9.0017                 2.7945                18.7611

                    94                     95                     96
                     A                      A                      A
 Frequencies --  1334.4903              1342.3314              1364.2863
 Red. masses --     2.6130                 1.4870                 2.7770
 Frc consts  --     2.7417                 1.5786                 3.0454
 IR Inten    --     2.6515                 4.2865                29.3627

                    97                     98                     99
                     A                      A                      A
 Frequencies --  1371.3804              1374.1636              1382.1039
 Red. masses --     5.4627                 4.9993                 3.7827
 Frc consts  --     6.0531                 5.5621                 4.2573
 IR Inten    --    21.4621                 1.6659                 2.8996

                   100                    101                    102
                     A                      A                      A
 Frequencies --  1417.3701              1443.3202              1485.9627
 Red. masses --     2.5780                 2.9368                 6.9663
 Frc consts  --     3.0514                 3.6046                 9.0629
 IR Inten    --    11.4031                 9.5331                19.0493

                   103                    104                    105
                     A                      A                      A
 Frequencies --  1504.3991              1517.5159              1532.2650
 Red. masses --     6.3220                 6.9568                 4.2898
 Frc consts  --     8.4300                 9.4390                 5.9341
 IR Inten    --    96.0031                37.8982                35.0752

                   106                    107                    108
                     A                      A                      A
 Frequencies --  1539.9624              1549.1740              1563.4033
 Red. masses --     5.5730                 5.6548                 5.2891
 Frc consts  --     7.7868                 7.9960                 7.6169
 IR Inten    --    36.8224                44.2371                29.8054

                   109                    110                    111
                     A                      A                      A
 Frequencies --  1582.8549              1595.5935              1603.0192
 Red. masses --     6.3502                 7.7971                 7.0749
 Frc consts  --     9.3738                11.6958                10.7115
 IR Inten    --    13.3332                22.9011                27.4830

                   112                    113                    114
                     A                      A                      A
 Frequencies --  1612.1991              1649.7796              2241.9952
 Red. masses --     6.3264                 5.6314                 1.0342
 Frc consts  --     9.6882                 9.0306                 3.0628
 IR Inten    --    27.9807                 7.2647               152.9609

                   115                    116                    117
                     A                      A                      A
 Frequencies --  2246.5724              3174.8030              3190.0529
 Red. masses --     1.0481                 1.0859                 1.0885
 Frc consts  --     3.1167                 6.4489                 6.5261
 IR Inten    --   120.6468                 8.5212                18.2410

                   118                    119                    120
                     A                      A                      A
 Frequencies --  3190.9944              3191.3459              3195.1390
 Red. masses --     1.0893                 1.0884                 1.0925
 Frc consts  --     6.5353                 6.5311                 6.5714
 IR Inten    --    14.5989                 1.0469                12.0234

                   121                    122                    123
                     A                      A                      A
 Frequencies --  3198.5555              3209.6577              3211.4699
 Red. masses --     1.0968                 1.0933                 1.0941
 Frc consts  --     6.6116                 6.6362                 6.6485
 IR Inten    --    15.0089                 9.7898                 0.6698

                   124                    125                    126
                     A                      A                      A
 Frequencies --  3222.0795              3255.7935              3268.5612
 Red. masses --     1.0885                 1.0982                 1.0944
 Frc consts  --     6.6582                 6.8589                 6.8886
 IR Inten    --     2.9610                 2.4505                 3.6980

 - Thermochemistry -
 -------------------
 Temperature   298.150 Kelvin.  Pressure   1.00000 Atm.
 Atom     1 has atomic number 14 and mass  27.97693

 Molecular mass:   534.92061 amu.
 Principal axes and moments of inertia in atomic units:
                           1         2         3
     Eigenvalues --  5590.22184********************
           X            0.99998   0.00383  -0.00449
           Y           -0.00380   0.99996   0.00822
           Z            0.00452  -0.00821   0.99996
 This molecule is an asymmetric top.
 Rotational symmetry number  1.
 Warning -- assumption of classical behavior for rotation
           may cause significant error
 Rotational temperatures (Kelvin)      0.01549     0.00138     0.00132
 Rotational constants (GHZ):           0.32284     0.02879     0.02759
 Zero-point vibrational energy     777605.3 (Joules/Mol)
                                  185.85213 (Kcal/Mol)
 Warning -- explicit consideration of  42 degrees of freedom as
           vibrations may cause significant error
 Vibrational temperatures:     17.37    24.34    29.51    44.19    77.20
          (Kelvin)             91.34   103.85   133.66   142.68   171.57
                              204.90   229.83   256.61   267.13   302.70
                              315.35   326.44   343.71   357.77   407.31
                              417.13   434.26   487.59   512.24   548.23
                              566.40   605.97   611.65   643.60   658.25
                              684.45   689.75   703.69   714.09   724.79
                              759.99   777.76   799.94   826.33   836.79
                              874.36   886.56   897.10   902.31   937.38
                              948.93   949.58   978.00  1014.23  1040.02
                             1047.12  1068.22  1083.07  1101.13  1112.27
                             1117.22  1154.79  1160.57  1162.25  1167.83
                             1194.47  1201.85  1224.49  1229.70  1238.49
                             1250.55  1252.54  1288.81  1313.11  1319.40
                             1357.58  1363.14  1365.62  1378.28  1407.43
                             1424.06  1441.86  1453.94  1459.36  1497.99
                             1592.89  1603.35  1649.97  1654.24  1673.90
                             1722.69  1750.85  1821.25  1829.49  1866.65
                             1883.51  1894.61  1904.28  1920.03  1931.31
                             1962.90  1973.11  1977.11  1988.54  2039.28
                             2076.61  2137.97  2164.49  2183.36  2204.58
                             2215.66  2228.91  2249.39  2277.37  2295.70
                             2306.38  2319.59  2373.66  3225.73  3232.31
                             4567.83  4589.77  4591.12  4591.63  4597.09
                             4602.00  4617.98  4620.58  4635.85  4684.35
                             4702.72

 Zero-point correction=                           0.296174 (Hartree/Particle)
 Thermal correction to Energy=                    0.321629
 Thermal correction to Enthalpy=                  0.322573
 Thermal correction to Gibbs Free Energy=         0.236904
 Sum of electronic and zero-point Energies=          -4931.711914
 Sum of electronic and thermal Energies=             -4931.686460
 Sum of electronic and thermal Enthalpies=           -4931.685515
 Sum of electronic and thermal Free Energies=        -4931.771185

                     E (Thermal)             CV                S
                      KCal/Mol        Cal/Mol-Kelvin    Cal/Mol-Kelvin
 Total                  201.825            100.667            180.306
 Electronic               0.000              0.000              0.000
 Translational            0.889              2.981             44.717
 Rotational               0.889              2.981             38.369
 Vibrational            200.048             94.706             97.220
 Vibration     1          0.593              1.987              7.637
 Vibration     2          0.593              1.986              6.967
 Vibration     3          0.593              1.986              6.584
 Vibration     4          0.594              1.984              5.783
 Vibration     5          0.596              1.976              4.678
 Vibration     6          0.597              1.972              4.346
 Vibration     7          0.598              1.967              4.093
 Vibration     8          0.602              1.954              3.598
 Vibration     9          0.604              1.950              3.471
 Vibration    10          0.609              1.933              3.112
 Vibration    11          0.616              1.911              2.771
 Vibration    12          0.622              1.892              2.553
 Vibration    13          0.629              1.869              2.346
 Vibration    14          0.632              1.859              2.271
 Vibration    15          0.643              1.825              2.040
 Vibration    16          0.647              1.812              1.966
 Vibration    17          0.651              1.800              1.903
 Vibration    18          0.657              1.781              1.811
 Vibration    19          0.662              1.765              1.740
 Vibration    20          0.682              1.705              1.515
 Vibration    21          0.686              1.692              1.474
 Vibration    22          0.694              1.670              1.407
 Vibration    23          0.719              1.598              1.217
 Vibration    24          0.732              1.563              1.139
 Vibration    25          0.751              1.511              1.035
 Vibration    26          0.761              1.484              0.986
 Vibration    27          0.784              1.424              0.888
 Vibration    28          0.787              1.416              0.875
 Vibration    29          0.806              1.367              0.804
 Vibration    30          0.816              1.344              0.773
 Vibration    31          0.832              1.304              0.722
 Vibration    32          0.836              1.296              0.712
 Vibration    33          0.845              1.274              0.686
 Vibration    34          0.852              1.258              0.667
 Vibration    35          0.859              1.242              0.649
 Vibration    36          0.883              1.188              0.591
 Vibration    37          0.896              1.160              0.564
 Vibration    38          0.911              1.127              0.532
 Vibration    39          0.931              1.087              0.496
 Vibration    40          0.938              1.071              0.482
 Vibration    41          0.967              1.015              0.437
 Vibration    42          0.976              0.998              0.423

 Optimization completed.
    -- Stationary point found.
 Normal termination of Gaussian 09 at Mon Dec 30 05:55:18 2013.
