 Gaussian 09, Revision C.01,
 Gaussian 09:  EM64L-G09RevC.01 23-Sep-2011

 --------------------------------------------
 #B3LYP/6-31++G(d,p) opt scf=direct freq test
 --------------------------------------------

 Geom opt of No.84 candidate from the CEPDB database with SMILE code of
  C1ccc2csc(c12)-c1ccc(cn1)-c1sc(-c2cncc3nsnc23)c2cc[Se]c12, HPC, 20131
 227, Shuo Dai, Gaussian09
 ----------------------------------------------------------------------
 Charge =  0 Multiplicity = 2

 SCF Done:  E(UB3LYP) =  -4696.00195722     A.U. after   29 cycles
 SCF Done:  E(UB3LYP) =  -4696.34882460     A.U. after   29 cycles
 SCF Done:  E(UB3LYP) =  -4696.80099091     A.U. after   31 cycles
 SCF Done:  E(UB3LYP) =  -4697.08303245     A.U. after   30 cycles
 SCF Done:  E(UB3LYP) =  -4697.16769074     A.U. after   29 cycles
 SCF Done:  E(UB3LYP) =  -4697.20922923     A.U. after   30 cycles
 SCF Done:  E(UB3LYP) =  -4697.20889302     A.U. after   44 cycles
 SCF Done:  E(UB3LYP) =  -4697.21111441     A.U. after   28 cycles
 SCF Done:  E(UB3LYP) =  -4697.20286795     A.U. after   42 cycles
 SCF Done:  E(UB3LYP) =  -4697.21389261     A.U. after   42 cycles
 SCF Done:  E(UB3LYP) =  -4697.21914540     A.U. after   29 cycles
 SCF Done:  E(UB3LYP) =  -4697.21915359     A.U. after   31 cycles
 SCF Done:  E(UB3LYP) =  -4697.21916093     A.U. after   28 cycles
 SCF Done:  E(UB3LYP) =  -4697.21916440     A.U. after   20 cycles
 SCF Done:  E(UB3LYP) =  -4697.21916607     A.U. after   30 cycles
 SCF Done:  E(UB3LYP) =  -4697.21916656     A.U. after   20 cycles
 SCF Done:  E(UB3LYP) =  -4697.21916682     A.U. after   20 cycles
 SCF Done:  E(UB3LYP) =  -4697.21916695     A.U. after   24 cycles
 SCF Done:  E(UB3LYP) =  -4697.21916696     A.U. after   19 cycles
 Optimization completed.
    -- Stationary point found.
 Normal termination of Gaussian 09 at Mon Dec 30 09:51:03 2013.

 ----------------------------------------------------------------------
 #N Geom=AllCheck Guess=TCheck SCRF=Check Test GenChk UB3LYP/6-31++G(d,
 p) Freq
 ----------------------------------------------------------------------

 Geom opt of No.84 candidate from the CEPDB database with SMILE code of
  C1ccc2csc(c12)-c1ccc(cn1)-c1sc(-c2cncc3nsnc23)c2cc[Se]c12, HPC, 20131
 227, Shuo Dai, Gaussian09
 ----------------------------------------------------------------------
 Charge =  0 Multiplicity = 2

                         Standard orientation:
 ---------------------------------------------------------------------
 Center     Atomic      Atomic             Coordinates (Angstroms)
 Number     Number       Type             X           Y           Z
 ---------------------------------------------------------------------
      1          6           0       -5.888717   -2.648526    0.822579
      2          6           0       -7.343289   -3.083108    0.906621
      3          6           0       -8.173494   -2.156522    0.381411
      4          6           0       -7.383457   -1.025055   -0.102688
      5          6           0       -7.592905    0.183730   -0.716533
      6         16           0       -6.092309    1.011322   -0.997610
      7          6           0       -5.155190   -0.295508   -0.270747
      8          6           0       -5.998945   -1.297582    0.151532
      9          6           0       -3.702366   -0.172375   -0.209533
     10          6           0       -2.882130   -1.156037    0.380122
     11          6           0       -1.508738   -0.963769    0.414605
     12          6           0       -0.949533    0.204222   -0.132445
     13          6           0       -1.852716    1.118543   -0.710873
     14          7           0       -3.170482    0.946030   -0.748015
     15          6           0        0.485716    0.481553   -0.111725
     16         16           0        1.665301   -0.788329   -0.354744
     17          6           0        3.021953    0.320834   -0.172507
     18          6           0        4.401673   -0.141997   -0.293183
     19          6           0        5.448054    0.713257   -0.622963
     20          7           0        6.770142    0.377766   -0.731392
     21          6           0        7.147913   -0.863061   -0.535794
     22          6           0        6.192042   -1.871623   -0.215046
     23          7           0        6.440593   -3.171291   -0.004570
     24         16           0        4.991578   -3.865212    0.325327
     25          7           0        4.011257   -2.550234    0.216819
     26          6           0        4.797938   -1.510972   -0.088917
     27          6           0        2.557427    1.605865    0.063146
     28          6           0        3.287961    2.897887    0.346057
     29          6           0        2.286310    3.898440    0.851272
     30         34           0        0.487769    3.390781    0.605407
     31          6           0        1.135497    1.674148    0.107285
     32          1           0       -5.287305   -3.362427    0.241617
     33          1           0       -5.429192   -2.590743    1.819812
     34          1           0       -7.645947   -4.028801    1.342428
     35          1           0       -9.253251   -2.231821    0.323662
     36          1           0       -8.524574    0.640344   -1.023277
     37          1           0       -3.313680   -2.050669    0.811353
     38          1           0       -0.868337   -1.705534    0.882976
     39          1           0       -1.478598    2.022409   -1.187513
     40          1           0        5.242187    1.752851   -0.843051
     41          1           0        8.202450   -1.109827   -0.628127
     42          1           0        3.769212    3.276785   -0.573939
     43          1           0        4.103727    2.746841    1.069284
     44          1           0        2.519458    4.939588    1.033429
 ---------------------------------------------------------------------

 SCF Done:  E(UB3LYP) =  -4697.21916696     A.U. after    5 cycles

 The electronic state is 2-A.
 Alpha  occ. eigenvalues -- -453.90155 -89.00270 -88.92892 -88.91353 -57.50019
 Alpha  occ. eigenvalues --  -52.17364 -52.17248 -52.17014 -14.40139 -14.39781
 Alpha  occ. eigenvalues --  -14.36496 -14.34734 -10.27319 -10.26729 -10.25636
 Alpha  occ. eigenvalues --  -10.25303 -10.24938 -10.24859 -10.24800 -10.24483
 Alpha  occ. eigenvalues --  -10.23993 -10.23580 -10.22888 -10.22887 -10.22753
 Alpha  occ. eigenvalues --  -10.22739 -10.22507 -10.22447 -10.22065 -10.21573
 Alpha  occ. eigenvalues --  -10.21505 -10.20757 -10.20585 -10.20502 -10.20310
 Alpha  occ. eigenvalues --   -8.05578  -7.98673  -7.97146  -7.74287  -6.02131
 Alpha  occ. eigenvalues --   -6.01546  -6.01345  -5.95130  -5.94738  -5.94361
 Alpha  occ. eigenvalues --   -5.93590  -5.93192  -5.92860  -5.78492  -5.78089
 Alpha  occ. eigenvalues --   -5.77473  -2.14117  -2.14056  -2.13502  -2.13181
 Alpha  occ. eigenvalues --   -2.13106  -1.04762  -0.96679  -0.96222  -0.92315
 Alpha  occ. eigenvalues --   -0.91163  -0.90002  -0.84406  -0.83944  -0.83377
 Alpha  occ. eigenvalues --   -0.81665  -0.80394  -0.79417  -0.76167  -0.74288
 Alpha  occ. eigenvalues --   -0.73072  -0.71665  -0.71126  -0.69797  -0.68126
 Alpha  occ. eigenvalues --   -0.65282  -0.65000  -0.64838  -0.62426  -0.60159
 Alpha  occ. eigenvalues --   -0.58518  -0.57384  -0.57060  -0.55378  -0.54053
 Alpha  occ. eigenvalues --   -0.53925  -0.53498  -0.52194  -0.50666  -0.49879
 Alpha  occ. eigenvalues --   -0.48374  -0.48045  -0.46646  -0.46574  -0.46316
 Alpha  occ. eigenvalues --   -0.45675  -0.44144  -0.43229  -0.42714  -0.42560
 Alpha  occ. eigenvalues --   -0.42474  -0.41958  -0.41120  -0.40957  -0.40868
 Alpha  occ. eigenvalues --   -0.39729  -0.39575  -0.39025  -0.38620  -0.38313
 Alpha  occ. eigenvalues --   -0.37549  -0.36911  -0.36163  -0.35693  -0.34924
 Alpha  occ. eigenvalues --   -0.34410  -0.33363  -0.32699  -0.32066  -0.31674
 Alpha  occ. eigenvalues --   -0.30453  -0.30229  -0.29208  -0.28397  -0.27972
 Alpha  occ. eigenvalues --   -0.27153  -0.26271  -0.24352  -0.22890  -0.21146
 Alpha  occ. eigenvalues --   -0.17687
 Alpha virt. eigenvalues --   -0.11966  -0.07512  -0.04969  -0.04186  -0.02939
 Alpha virt. eigenvalues --   -0.02754  -0.02253  -0.01743  -0.01325  -0.00980
 Alpha virt. eigenvalues --   -0.00562  -0.00140   0.00241   0.00484   0.01063

  Beta  occ. eigenvalues -- -453.90125 -89.00270 -88.92889 -88.91353 -57.49998
  Beta  occ. eigenvalues --  -52.17352 -52.17241 -52.16933 -14.40141 -14.39779
  Beta  occ. eigenvalues --  -14.36493 -14.34736 -10.27320 -10.26728 -10.25641
  Beta  occ. eigenvalues --  -10.25297 -10.24950 -10.24860 -10.24799 -10.24442
  Beta  occ. eigenvalues --  -10.23985 -10.23607 -10.22892 -10.22889 -10.22726
  Beta  occ. eigenvalues --  -10.22579 -10.22442 -10.22063 -10.21576 -10.21520
  Beta  occ. eigenvalues --  -10.21505 -10.20755 -10.20585 -10.20502 -10.20311
  Beta  occ. eigenvalues --   -8.05578  -7.98671  -7.97145  -7.74236  -6.02131
  Beta  occ. eigenvalues --   -6.01546  -6.01345  -5.95129  -5.94737  -5.94351
  Beta  occ. eigenvalues --   -5.93590  -5.93192  -5.92860  -5.78473  -5.78078
  Beta  occ. eigenvalues --   -5.77315  -2.14112  -2.14051  -2.13407  -2.13091
  Beta  occ. eigenvalues --   -2.12998  -1.04762  -0.96680  -0.96218  -0.92304
  Beta  occ. eigenvalues --   -0.91110  -0.89999  -0.84346  -0.83614  -0.83277
  Beta  occ. eigenvalues --   -0.81427  -0.80378  -0.79403  -0.76096  -0.74211
  Beta  occ. eigenvalues --   -0.72332  -0.71547  -0.71071  -0.69795  -0.68091
  Beta  occ. eigenvalues --   -0.65275  -0.64987  -0.64824  -0.62403  -0.58788
  Beta  occ. eigenvalues --   -0.58362  -0.57235  -0.56982  -0.55322  -0.54044
  Beta  occ. eigenvalues --   -0.53871  -0.53486  -0.52187  -0.50507  -0.49867
  Beta  occ. eigenvalues --   -0.48359  -0.48020  -0.46585  -0.46311  -0.45746
  Beta  occ. eigenvalues --   -0.45665  -0.43969  -0.43121  -0.42684  -0.42508
  Beta  occ. eigenvalues --   -0.42248  -0.41877  -0.41035  -0.40930  -0.40761
  Beta  occ. eigenvalues --   -0.39648  -0.39424  -0.38907  -0.38590  -0.38280
  Beta  occ. eigenvalues --   -0.37534  -0.36903  -0.36119  -0.35531  -0.34772
  Beta  occ. eigenvalues --   -0.33999  -0.33359  -0.32620  -0.31979  -0.31010
  Beta  occ. eigenvalues --   -0.30227  -0.30122  -0.29001  -0.28390  -0.27895
  Beta  occ. eigenvalues --   -0.27147  -0.24672  -0.24167  -0.22681  -0.20921
  Beta virt. eigenvalues --   -0.11959  -0.07601  -0.06492  -0.04908  -0.04135
  Beta virt. eigenvalues --   -0.02908  -0.02744  -0.02244  -0.01536  -0.01288
  Beta virt. eigenvalues --   -0.00944  -0.00510  -0.00080   0.00323   0.00511

 Mulliken atomic charges:
              1
     1  C   -0.756592
     2  C   -0.137152
     3  C   -0.557234
     4  C   -0.402354
     5  C    0.133510
     6  S    0.175737
     7  C   -0.082477
     8  C    0.372512
     9  C    0.429639
    10  C   -0.236460
    11  C   -0.170202
    12  C    0.248209
    13  C   -0.227688
    14  N   -0.063016
    15  C   -1.298785
    16  S    0.136612
    17  C   -0.272193
    18  C   -0.052194
    19  C   -0.362275
    20  N   -0.066090
    21  C   -0.344082
    22  C    0.352378
    23  N   -0.429152
    24  S    0.868529
    25  N   -0.393098
    26  C   -0.315404
    27  C    2.335197
    28  C   -0.985112
    29  C    0.000357
    30  Se   0.123863
    31  C   -0.076668
    32  H    0.169583
    33  H    0.165456
    34  H    0.135652
    35  H    0.098464
    36  H    0.167211
    37  H    0.068184
    38  H    0.159706
    39  H    0.180296
    40  H    0.218399
    41  H    0.180647
    42  H    0.135181
    43  H    0.199138
    44  H    0.173766
 Sum of Mulliken atomic charges =  -0.00000

 Dipole moment (field-independent basis, Debye):
    X=             -0.3667    Y=             -2.3449    Z=              1.4417  Tot=              2.7770
 Quadrupole moment (field-independent basis, Debye-Ang):
   XX=           -208.1431   YY=           -197.1053   ZZ=           -216.9645
   XY=             11.7817   XZ=             -1.5507   YZ=             -3.8443

  Exact polarizability: 735.961   5.933 433.804  -5.385 -29.432 214.388
 Approx polarizability:1038.309  10.077 783.421  -7.906 -82.575 376.153

                     1                      2                      3
                     A                      A                      A
 Frequencies --    12.6676                17.5568                20.1492
 Red. masses --    10.4653                 7.7639                 8.9840
 Frc consts  --     0.0010                 0.0014                 0.0021
 IR Inten    --     0.0388                 0.3340                 0.0049

                     4                      5                      6
                     A                      A                      A
 Frequencies --    30.4368                57.1929                67.2483
 Red. masses --     9.2592                 7.2989                 4.7107
 Frc consts  --     0.0051                 0.0141                 0.0126
 IR Inten    --     0.0933                 0.1118                 0.4490

                     7                      8                      9
                     A                      A                      A
 Frequencies --    73.0252                83.7558                90.4627
 Red. masses --     8.2552                 7.4078                 7.1526
 Frc consts  --     0.0259                 0.0306                 0.0345
 IR Inten    --     0.3427                 0.2096                 0.4187

                    10                     11                     12
                     A                      A                      A
 Frequencies --   126.4480               145.6769               153.3839
 Red. masses --     6.8697                 5.9224                 6.1514
 Frc consts  --     0.0647                 0.0741                 0.0853
 IR Inten    --     0.0577                 0.3739                 0.2827

                    13                     14                     15
                     A                      A                      A
 Frequencies --   162.1294               174.5026               195.7607
 Red. masses --     4.8045                 7.6501                 7.0504
 Frc consts  --     0.0744                 0.1373                 0.1592
 IR Inten    --     1.0523                 0.1961                 0.9575

                    16                     17                     18
                     A                      A                      A
 Frequencies --   206.0667               209.8068               244.1899
 Red. masses --     7.3900                 6.1754                 4.1737
 Frc consts  --     0.1849                 0.1602                 0.1466
 IR Inten    --     0.2896                 3.4489                 1.6502

                    19                     20                     21
                     A                      A                      A
 Frequencies --   250.2122               266.8465               274.7835
 Red. masses --     4.3417                 4.0912                 9.4668
 Frc consts  --     0.1601                 0.1716                 0.4211
 IR Inten    --     1.3683                 3.6976                 1.9564

                    22                     23                     24
                     A                      A                      A
 Frequencies --   308.7032               316.3820               358.3213
 Red. masses --     5.4378                 5.6406                 1.8057
 Frc consts  --     0.3053                 0.3327                 0.1366
 IR Inten    --     2.5448                 2.9986                20.2554

                    25                     26                     27
                     A                      A                      A
 Frequencies --   369.7280               395.7070               403.2028
 Red. masses --     2.5704                 6.3285                 8.5743
 Frc consts  --     0.2070                 0.5838                 0.8213
 IR Inten    --    13.5105                 1.0077                 6.4689

                    28                     29                     30
                     A                      A                      A
 Frequencies --   422.9443               438.9383               441.4416
 Red. masses --     2.6237                 3.4434                 5.7278
 Frc consts  --     0.2765                 0.3909                 0.6576
 IR Inten    --     6.7177                 3.4178                 3.3005

                    31                     32                     33
                     A                      A                      A
 Frequencies --   450.8173               465.0686               483.6397
 Red. masses --     6.4220                 6.5337                 5.9792
 Frc consts  --     0.7690                 0.8326                 0.8240
 IR Inten    --     0.8647                 6.0383                 2.2264

                    34                     35                     36
                     A                      A                      A
 Frequencies --   501.3505               513.0394               522.0972
 Red. masses --     8.6289                 9.2007                 7.9348
 Frc consts  --     1.2779                 1.4268                 1.2743
 IR Inten    --     7.0280                 3.5455                 0.2308

                    37                     38                     39
                     A                      A                      A
 Frequencies --   528.5126               556.2810               585.6474
 Red. masses --    13.7412                 7.3277                 3.7172
 Frc consts  --     2.2614                 1.3360                 0.7512
 IR Inten    --     2.2545                 9.8870                 0.1399

                    40                     41                     42
                     A                      A                      A
 Frequencies --   588.0301               601.9556               635.2093
 Red. masses --     3.5380                 8.4306                 6.9792
 Frc consts  --     0.7208                 1.7999                 1.6592
 IR Inten    --    14.5124                 2.7730                 4.0986

                    43                     44                     45
                     A                      A                      A
 Frequencies --   646.5707               651.1728               678.4330
 Red. masses --     7.6654                 7.6073                 2.1338
 Frc consts  --     1.8881                 1.9005                 0.5787
 IR Inten    --     4.6519                 4.1581                19.9084

                    46                     47                     48
                     A                      A                      A
 Frequencies --   688.2901               693.2337               717.8024
 Red. masses --     5.5753                 7.2086                 7.0408
 Frc consts  --     1.5562                 2.0411                 2.1374
 IR Inten    --     5.5583                 7.1861                10.3847

                    49                     50                     51
                     A                      A                      A
 Frequencies --   721.0569               733.2457               769.0671
 Red. masses --     1.2771                 5.9264                 8.2290
 Frc consts  --     0.3912                 1.8773                 2.8676
 IR Inten    --     0.2191                 1.3823                 3.2709

                    52                     53                     54
                     A                      A                      A
 Frequencies --   774.8639               785.0496               797.8065
 Red. masses --     1.9359                 5.3074                 3.5975
 Frc consts  --     0.6848                 1.9272                 1.3491
 IR Inten    --    34.6556                 5.0828                 3.7092

                    55                     56                     57
                     A                      A                      A
 Frequencies --   805.9950               827.2013               829.6401
 Red. masses --     5.8466                10.9727                 7.2360
 Frc consts  --     2.2378                 4.4237                 2.9345
 IR Inten    --    19.5199                24.7714                21.8762

                    58                     59                     60
                     A                      A                      A
 Frequencies --   840.3261               846.5729               860.0973
 Red. masses --    13.5685                 4.4790                 1.7684
 Frc consts  --     5.6452                 1.8913                 0.7708
 IR Inten    --    39.8184                23.0072                15.7485

                    61                     62                     63
                     A                      A                      A
 Frequencies --   895.8065               896.5384               910.8670
 Red. masses --     1.9471                 3.6214                 6.0979
 Frc consts  --     0.9206                 1.7150                 2.9809
 IR Inten    --    14.8535                21.8787                 5.9771

                    64                     65                     66
                     A                      A                      A
 Frequencies --   913.3580               923.2907               929.7789
 Red. masses --     5.6333                 2.7237                 3.1716
 Frc consts  --     2.7688                 1.3680                 1.6154
 IR Inten    --     6.5818                 1.9215                 3.9763

                    67                     68                     69
                     A                      A                      A
 Frequencies --   941.2474               947.9421               949.6544
 Red. masses --     2.3099                 1.5168                 1.5461
 Frc consts  --     1.2057                 0.8030                 0.8215
 IR Inten    --    14.5238                 2.5868                 8.3404

                    70                     71                     72
                     A                      A                      A
 Frequencies --   953.7408               961.2489               961.9861
 Red. masses --     1.5671                 1.5188                 4.9723
 Frc consts  --     0.8399                 0.8269                 2.7111
 IR Inten    --     2.7224                 0.2916                 8.9969

                    73                     74                     75
                     A                      A                      A
 Frequencies --   989.3740               998.9645              1027.0778
 Red. masses --     3.3959                 1.4908                 2.3464
 Frc consts  --     1.9585                 0.8765                 1.4583
 IR Inten    --     3.0421                 0.1813                 9.7609

                    76                     77                     78
                     A                      A                      A
 Frequencies --  1046.5601              1081.7803              1131.1461
 Red. masses --     3.0092                 2.1836                 3.5531
 Frc consts  --     1.9419                 1.5056                 2.6785
 IR Inten    --     7.0871                 4.6090                 9.5157

                    79                     80                     81
                     A                      A                      A
 Frequencies --  1135.0557              1155.4522              1162.3582
 Red. masses --     1.4010                 1.1166                 1.1461
 Frc consts  --     1.0634                 0.8783                 0.9123
 IR Inten    --    11.2317                 0.6759                 1.0849

                    82                     83                     84
                     A                      A                      A
 Frequencies --  1171.2166              1174.4655              1191.3259
 Red. masses --     1.3360                 3.4701                 1.5401
 Frc consts  --     1.0797                 2.8201                 1.2878
 IR Inten    --    10.8142                 5.2762                 1.9186

                    85                     86                     87
                     A                      A                      A
 Frequencies --  1224.8409              1265.1316              1272.4227
 Red. masses --     2.0322                 2.0431                 3.8195
 Frc consts  --     1.7963                 1.9267                 3.6435
 IR Inten    --     2.8151                 6.4808                 4.0663

                    88                     89                     90
                     A                      A                      A
 Frequencies --  1285.6378              1299.7187              1307.6581
 Red. masses --     5.1279                 1.8678                 2.4045
 Frc consts  --     4.9938                 1.8590                 2.4225
 IR Inten    --     4.8997                 7.1532                45.6090

                    91                     92                     93
                     A                      A                      A
 Frequencies --  1321.8994              1333.3501              1340.3645
 Red. masses --     1.8805                 2.3899                 2.5868
 Frc consts  --     1.9361                 2.5034                 2.7382
 IR Inten    --    23.5752                37.9247                15.1441

                    94                     95                     96
                     A                      A                      A
 Frequencies --  1352.8808              1359.0572              1369.9969
 Red. masses --     1.9309                 6.4418                 8.2020
 Frc consts  --     2.0822                 7.0102                 9.0700
 IR Inten    --    17.9970                17.9274                33.2970

                    97                     98                     99
                     A                      A                      A
 Frequencies --  1378.7617              1387.8463              1420.4912
 Red. masses --     3.0380                 4.0174                 3.1243
 Frc consts  --     3.4026                 4.5591                 3.7143
 IR Inten    --     2.5651                 4.3088                65.8564

                   100                    101                    102
                     A                      A                      A
 Frequencies --  1423.5162              1454.4544              1462.0398
 Red. masses --     3.0912                 1.1064                 1.0829
 Frc consts  --     3.6907                 1.3789                 1.3639
 IR Inten    --     1.9966                 8.0594                 1.3140

                   103                    104                    105
                     A                      A                      A
 Frequencies --  1489.1118              1512.2259              1521.6978
 Red. masses --     3.9469                 4.8243                 6.1078
 Frc consts  --     5.1565                 6.5001                 8.3328
 IR Inten    --   200.5268                29.3960                22.3533

                   106                    107                    108
                     A                      A                      A
 Frequencies --  1538.0061              1551.0571              1571.2429
 Red. masses --     5.6980                 7.5916                 6.9011
 Frc consts  --     7.9412                10.7607                10.0381
 IR Inten    --   122.4739                72.2328                 5.8124

                   109                    110                    111
                     A                      A                      A
 Frequencies --  1592.0761              1604.8624              1607.7919
 Red. masses --     7.2168                 6.7691                 5.9407
 Frc consts  --    10.7776                10.2721                 9.0479
 IR Inten    --    39.8204                29.7718                23.6101

                   112                    113                    114
                     A                      A                      A
 Frequencies --  1634.3078              1639.6004              2937.6429
 Red. masses --     6.5914                 6.9373                 1.0732
 Frc consts  --    10.3728                10.9880                 5.4568
 IR Inten    --   115.8494                 8.8960                34.5443

                   115                    116                    117
                     A                      A                      A
 Frequencies --  3009.2763              3018.9207              3045.2341
 Red. masses --     1.0845                 1.0597                 1.1016
 Frc consts  --     5.7865                 5.6904                 6.0186
 IR Inten    --    10.5339                15.0190                 8.4094

                   118                    119                    120
                     A                      A                      A
 Frequencies --  3170.0472              3191.0411              3194.0876
 Red. masses --     1.0907                 1.0918                 1.0905
 Frc consts  --     6.4576                 6.5501                 6.5547
 IR Inten    --    18.9530                 2.3680                 6.7882

                   121                    122                    123
                     A                      A                      A
 Frequencies --  3213.3438              3234.8618              3235.0324
 Red. masses --     1.0871                 1.0950                 1.1003
 Frc consts  --     6.6133                 6.7512                 6.7843
 IR Inten    --     1.8045                21.7031                11.9191

                   124                    125                    126
                     A                      A                      A
 Frequencies --  3237.8581              3241.2704              3254.1669
 Red. masses --     1.0895                 1.0893                 1.0938
 Frc consts  --     6.7296                 6.7427                 6.8247
 IR Inten    --    10.3518                 5.8053                 0.1879

 - Thermochemistry -
 -------------------
 Temperature   298.150 Kelvin.  Pressure   1.00000 Atm.
 Atom     1 has atomic number  6 and mass  12.00000

 Molecular mass:   520.94676 amu.
 Principal axes and moments of inertia in atomic units:
                           1         2         3
     Eigenvalues --  9688.28846********************
           X            0.99992   0.01215  -0.00251
           Y           -0.01219   0.99981  -0.01533
           Z            0.00233   0.01536   0.99988
 This molecule is an asymmetric top.
 Rotational symmetry number  1.
 Warning -- assumption of classical behavior for rotation
           may cause significant error
 Rotational temperatures (Kelvin)      0.00894     0.00223     0.00182
 Rotational constants (GHZ):           0.18628     0.04636     0.03799
 Zero-point vibrational energy     797734.6 (Joules/Mol)
                                  190.66315 (Kcal/Mol)
 Warning -- explicit consideration of  41 degrees of freedom as
           vibrations may cause significant error
 Vibrational temperatures:     18.23    25.26    28.99    43.79    82.29
          (Kelvin)             96.76   105.07   120.51   130.16   181.93
                              209.60   220.68   233.27   251.07   281.66
                              296.48   301.86   351.33   360.00   383.93
                              395.35   444.15   455.20   515.54   531.96
                              569.33   580.12   608.52   631.53   635.14
                              648.62   669.13   695.85   721.33   738.15
                              751.18   760.41   800.36   842.61   846.04
                              866.08   913.92   930.27   936.89   976.11
                              990.29   997.41  1032.76  1037.44  1054.98
                             1106.51  1114.85  1129.51  1147.86  1159.65
                             1190.16  1193.67  1209.04  1218.03  1237.49
                             1288.86  1289.92  1310.53  1314.12  1328.41
                             1337.74  1354.24  1363.88  1366.34  1372.22
                             1383.02  1384.08  1423.49  1437.29  1477.73
                             1505.76  1556.44  1627.46  1633.09  1662.44
                             1672.37  1685.12  1689.79  1714.05  1762.27
                             1820.24  1830.73  1849.74  1870.00  1881.43
                             1901.92  1918.39  1928.48  1946.49  1955.38
                             1971.12  1983.73  1996.80  2043.77  2048.12
                             2092.63  2103.55  2142.50  2175.75  2189.38
                             2212.85  2231.62  2260.67  2290.64  2309.04
                             2313.25  2351.40  2359.02  4226.61  4329.67
                             4343.55  4381.41  4560.99  4591.19  4595.57
                             4623.28  4654.24  4654.48  4658.55  4663.46
                             4682.01

 Zero-point correction=                           0.303841 (Hartree/Particle)
 Thermal correction to Energy=                    0.329107
 Thermal correction to Enthalpy=                  0.330051
 Thermal correction to Gibbs Free Energy=         0.243936
 Sum of electronic and zero-point Energies=          -4696.915326
 Sum of electronic and thermal Energies=             -4696.890060
 Sum of electronic and thermal Enthalpies=           -4696.889116
 Sum of electronic and thermal Free Energies=        -4696.975231

                     E (Thermal)             CV                S
                      KCal/Mol        Cal/Mol-Kelvin    Cal/Mol-Kelvin
 Total                  206.517             98.221            181.243
 Electronic               0.000              0.000              1.377
 Translational            0.889              2.981             44.638
 Rotational               0.889              2.981             38.124
 Vibrational            204.740             92.260             97.104
 Vibration     1          0.593              1.987              7.541
 Vibration     2          0.593              1.986              6.893
 Vibration     3          0.593              1.986              6.619
 Vibration     4          0.594              1.984              5.801
 Vibration     5          0.596              1.975              4.552
 Vibration     6          0.598              1.970              4.232
 Vibration     7          0.599              1.967              4.070
 Vibration     8          0.601              1.960              3.801
 Vibration     9          0.602              1.956              3.650
 Vibration    10          0.611              1.927              2.999
 Vibration    11          0.617              1.907              2.728
 Vibration    12          0.619              1.899              2.630
 Vibration    13          0.622              1.889              2.525
 Vibration    14          0.627              1.874              2.386
 Vibration    15          0.636              1.846              2.173
 Vibration    16          0.641              1.831              2.078
 Vibration    17          0.642              1.826              2.045
 Vibration    18          0.660              1.772              1.772
 Vibration    19          0.663              1.762              1.729
 Vibration    20          0.672              1.734              1.617
 Vibration    21          0.677              1.720              1.566
 Vibration    22          0.698              1.657              1.369
 Vibration    23          0.703              1.642              1.329
 Vibration    24          0.733              1.558              1.129
 Vibration    25          0.742              1.534              1.081
 Vibration    26          0.762              1.479              0.979
 Vibration    27          0.769              1.463              0.951
 Vibration    28          0.785              1.420              0.882
 Vibration    29          0.799              1.385              0.830
 Vibration    30          0.801              1.380              0.822
 Vibration    31          0.810              1.359              0.793
 Vibration    32          0.823              1.328              0.751
 Vibration    33          0.840              1.286              0.700
 Vibration    34          0.857              1.247              0.655
 Vibration    35          0.868              1.221              0.626
 Vibration    36          0.877              1.201              0.605
 Vibration    37          0.883              1.187              0.591
 Vibration    38          0.912              1.126              0.531
 Vibration    39          0.943              1.062              0.475
 Vibration    40          0.945              1.057              0.471
 Vibration    41          0.960              1.028              0.446

 Normal termination of Gaussian 09 at Mon Dec 30 14:53:27 2013.
