 Gaussian 09, Revision C.01,
 Gaussian 09:  EM64L-G09RevC.01 23-Sep-2011

 --------------------------------------------
 #B3LYP/6-31++G(d,p) opt scf=direct freq test
 --------------------------------------------

 Geom opt of No.66 candidate from the CEPDB database with SMILE code of
  [SiH2]1cc2c(ccc(-c3ncc(s3)-c3cccc4nsnc34)c2c1)-c1cncs1, HPC, 20131227
 , Shuo Dai, Gaussian09
 ----------------------------------------------------------------------
 Charge =  0 Multiplicity = 1

 SCF Done:  E(RB3LYP) =  -2473.58750464     A.U. after   19 cycles
 SCF Done:  E(RB3LYP) =  -2473.63322202     A.U. after   26 cycles
 SCF Done:  E(RB3LYP) =  -2473.65717386     A.U. after   18 cycles
 SCF Done:  E(RB3LYP) =  -2473.66558076     A.U. after   18 cycles
 SCF Done:  E(RB3LYP) =  -2473.66603253     A.U. after   14 cycles
 SCF Done:  E(RB3LYP) =  -2473.66653778     A.U. after   13 cycles
 SCF Done:  E(RB3LYP) =  -2473.66660707     A.U. after   13 cycles
 SCF Done:  E(RB3LYP) =  -2473.66666549     A.U. after   13 cycles
 SCF Done:  E(RB3LYP) =  -2473.66680215     A.U. after   20 cycles
 SCF Done:  E(RB3LYP) =  -2473.66689524     A.U. after   20 cycles
 SCF Done:  E(RB3LYP) =  -2473.66977199     A.U. after   14 cycles
 SCF Done:  E(RB3LYP) =  -2473.66980192     A.U. after   13 cycles
 SCF Done:  E(RB3LYP) =  -2473.66980790     A.U. after   13 cycles
 SCF Done:  E(RB3LYP) =  -2473.66980938     A.U. after   12 cycles
 SCF Done:  E(RB3LYP) =  -2473.66981021     A.U. after   12 cycles
 SCF Done:  E(RB3LYP) =  -2473.66981075     A.U. after   11 cycles
 SCF Done:  E(RB3LYP) =  -2473.66981112     A.U. after   12 cycles
 SCF Done:  E(RB3LYP) =  -2473.66981141     A.U. after   12 cycles
 SCF Done:  E(RB3LYP) =  -2473.66981149     A.U. after   10 cycles
 Optimization completed.
    -- Stationary point found.
 Normal termination of Gaussian 09 at Sun Dec 29 20:33:11 2013.

 ----------------------------------------------------------------------
 #N Geom=AllCheck Guess=TCheck SCRF=Check Test GenChk RB3LYP/6-31++G(d,
 p) Freq
 ----------------------------------------------------------------------

 Geom opt of No.66 candidate from the CEPDB database with SMILE code of
  [SiH2]1cc2c(ccc(-c3ncc(s3)-c3cccc4nsnc34)c2c1)-c1cncs1, HPC, 20131227
 , Shuo Dai, Gaussian09
 ----------------------------------------------------------------------
 Charge =  0 Multiplicity = 1

                         Standard orientation:
 ---------------------------------------------------------------------
 Center     Atomic      Atomic             Coordinates (Angstroms)
 Number     Number       Type             X           Y           Z
 ---------------------------------------------------------------------
      1         14           0       -2.153846    3.129387    0.624945
      2          1           0       -2.286722    3.345618    2.089979
      3          1           0       -1.913698    4.438001   -0.037099
      4          6           0       -3.594358    2.134336   -0.098097
      5          6           0       -3.086090    0.697860   -0.067129
      6          6           0       -3.944976   -0.422399   -0.139303
      7          6           0       -3.379089   -1.708023   -0.043793
      8          6           0       -2.013194   -1.884066    0.084308
      9          6           0       -1.135946   -0.781439    0.132441
     10          6           0        0.299282   -1.104679    0.235628
     11          7           0        0.716092   -2.304751    0.592015
     12          6           0        2.069009   -2.408217    0.543897
     13          6           0        2.771635   -1.290787    0.133988
     14         16           0        1.620000   -0.013228   -0.176326
     15          6           0        4.217491   -1.170670   -0.039751
     16          6           0        5.021544   -2.289611   -0.199360
     17          6           0        6.439091   -2.218113   -0.333024
     18          6           0        7.115315   -1.022585   -0.337113
     19          6           0        6.344298    0.164972   -0.200396
     20          7           0        6.823328    1.417082   -0.193284
     21         16           0        5.530853    2.413382   -0.014140
     22          7           0        4.323641    1.300215    0.062908
     23          6           0        4.899594    0.098169   -0.052186
     24          6           0       -1.685676    0.522252    0.078515
     25          6           0       -0.863213    1.798440    0.214719
     26          6           0       -5.404367   -0.294431   -0.298005
     27          6           0       -6.143718    0.517576   -1.128031
     28          7           0       -7.509454    0.372860   -1.088755
     29          6           0       -7.848288   -0.545750   -0.228899
     30         16           0       -6.519397   -1.308194    0.601390
     31          1           0       -3.774501    2.464280   -1.130442
     32          1           0       -4.545473    2.239949    0.430821
     33          1           0       -4.023288   -2.580025   -0.102312
     34          1           0       -1.592813   -2.881003    0.138943
     35          1           0        2.529869   -3.340253    0.849729
     36          1           0        4.558124   -3.269577   -0.239720
     37          1           0        6.989056   -3.147446   -0.446860
     38          1           0        8.191914   -0.960849   -0.446826
     39          1           0       -0.356000    2.049814   -0.727174
     40          1           0       -0.082744    1.705135    0.974624
     41          1           0       -5.717027    1.233663   -1.818206
     42          1           0       -8.871432   -0.834938   -0.020103
 ---------------------------------------------------------------------

 SCF Done:  E(RB3LYP) =  -2473.66981149     A.U. after    2 cycles

 The electronic state is 1-A.
 Alpha  occ. eigenvalues --  -88.99096 -88.92998 -88.92954 -66.13621 -14.38902
 Alpha  occ. eigenvalues --  -14.38761 -14.35182 -14.34789 -10.26905 -10.26308
 Alpha  occ. eigenvalues --  -10.26048 -10.26034 -10.24428 -10.24393 -10.24185
 Alpha  occ. eigenvalues --  -10.23467 -10.22997 -10.22577 -10.22505 -10.22490
 Alpha  occ. eigenvalues --  -10.22291 -10.22240 -10.22203 -10.22033 -10.20456
 Alpha  occ. eigenvalues --  -10.20164 -10.19089 -10.18979  -8.04419  -7.98934
 Alpha  occ. eigenvalues --   -7.98829  -6.00979  -6.00396  -6.00168  -5.95322
 Alpha  occ. eigenvalues --   -5.95241  -5.94976  -5.94873  -5.94677  -5.94564
 Alpha  occ. eigenvalues --   -5.28439  -3.64306  -3.64295  -3.64250  -1.03548
 Alpha  occ. eigenvalues --   -0.97713  -0.97409  -0.90997  -0.88528  -0.88098
 Alpha  occ. eigenvalues --   -0.82825  -0.82220  -0.79992  -0.79072  -0.77962
 Alpha  occ. eigenvalues --   -0.77377  -0.75381  -0.73200  -0.70703  -0.69155
 Alpha  occ. eigenvalues --   -0.66939  -0.64746  -0.63444  -0.62526  -0.60200
 Alpha  occ. eigenvalues --   -0.58573  -0.57726  -0.57352  -0.55298  -0.52941
 Alpha  occ. eigenvalues --   -0.52298  -0.52157  -0.51394  -0.50734  -0.49056
 Alpha  occ. eigenvalues --   -0.47764  -0.46943  -0.46613  -0.45530  -0.44763
 Alpha  occ. eigenvalues --   -0.44414  -0.43608  -0.42978  -0.42668  -0.42131
 Alpha  occ. eigenvalues --   -0.41612  -0.41422  -0.40877  -0.40276  -0.39727
 Alpha  occ. eigenvalues --   -0.38426  -0.37994  -0.37245  -0.36817  -0.36551
 Alpha  occ. eigenvalues --   -0.35874  -0.35235  -0.34151  -0.33977  -0.33244
 Alpha  occ. eigenvalues --   -0.32034  -0.31236  -0.30805  -0.29456  -0.28810
 Alpha  occ. eigenvalues --   -0.28485  -0.28242  -0.28136  -0.27316  -0.25411
 Alpha  occ. eigenvalues --   -0.24714  -0.21728
 Alpha virt. eigenvalues --   -0.10936  -0.07419  -0.04404  -0.02567  -0.02359
 Alpha virt. eigenvalues --   -0.01521  -0.01354  -0.01218  -0.00958  -0.00668
 Alpha virt. eigenvalues --    0.00069   0.00329   0.00497   0.00629   0.01056

 Mulliken atomic charges:
              1
     1  Si   0.883424
     2  H   -0.061345
     3  H   -0.086302
     4  C   -1.087475
     5  C    0.331881
     6  C    0.725224
     7  C   -0.654307
     8  C   -0.680244
     9  C    0.770603
    10  C   -0.317178
    11  N   -0.018728
    12  C    0.211849
    13  C   -0.389906
    14  S    0.412837
    15  C    0.819661
    16  C   -0.785478
    17  C   -0.326342
    18  C   -0.520336
    19  C   -0.139535
    20  N   -0.386909
    21  S    0.858630
    22  N   -0.412601
    23  C    0.448594
    24  C    0.079216
    25  C   -1.161292
    26  C   -0.300262
    27  C   -0.431852
    28  N   -0.027680
    29  C   -0.088009
    30  S    0.360339
    31  H    0.196863
    32  H    0.235991
    33  H    0.095947
    34  H    0.156300
    35  H    0.170336
    36  H    0.073719
    37  H    0.126156
    38  H    0.162674
    39  H    0.195006
    40  H    0.201365
    41  H    0.171348
    42  H    0.187816
 Sum of Mulliken atomic charges =  -0.00000

 Dipole moment (field-independent basis, Debye):
    X=              2.0162    Y=             -0.9806    Z=              0.1653  Tot=              2.2481
 Quadrupole moment (field-independent basis, Debye-Ang):
   XX=           -190.7141   YY=           -181.1054   ZZ=           -196.4401
   XY=             -5.8363   XZ=             -8.2068   YZ=              0.4600

  Exact polarizability: 656.749  -5.499 360.313  -1.320 -12.011 192.512
 Approx polarizability: 902.367 -10.478 669.877  -6.011 -46.922 339.410

                     1                      2                      3
                     A                      A                      A
 Frequencies --     9.9165                20.2006                30.8040
 Red. masses --     9.1093                 6.9516                 9.1551
 Frc consts  --     0.0005                 0.0017                 0.0051
 IR Inten    --     0.0516                 0.2666                 0.4823

                     4                      5                      6
                     A                      A                      A
 Frequencies --    38.0894                46.3674                58.3100
 Red. masses --     7.9230                 9.6463                 7.1726
 Frc consts  --     0.0068                 0.0122                 0.0144
 IR Inten    --     0.0284                 0.4009                 0.2091

                     7                      8                      9
                     A                      A                      A
 Frequencies --    85.0744                93.7268               100.0765
 Red. masses --     6.0932                 3.2071                 4.4539
 Frc consts  --     0.0260                 0.0166                 0.0263
 IR Inten    --     0.3991                 0.4830                 0.0246

                    10                     11                     12
                     A                      A                      A
 Frequencies --   131.5957               140.9044               172.5718
 Red. masses --     5.9765                 4.3948                 8.1093
 Frc consts  --     0.0610                 0.0514                 0.1423
 IR Inten    --     0.0805                 0.2616                 1.0357

                    13                     14                     15
                     A                      A                      A
 Frequencies --   182.0791               198.8660               221.1671
 Red. masses --     5.2085                 6.5192                 7.3896
 Frc consts  --     0.1017                 0.1519                 0.2130
 IR Inten    --     0.6504                 0.5567                 0.6877

                    16                     17                     18
                     A                      A                      A
 Frequencies --   237.4525               259.5016               279.0801
 Red. masses --     4.6671                 5.4448                 4.5783
 Frc consts  --     0.1550                 0.2160                 0.2101
 IR Inten    --     1.7930                 3.0599                 4.9270

                    19                     20                     21
                     A                      A                      A
 Frequencies --   311.9036               312.9472               335.8017
 Red. masses --     5.8153                 6.3311                 7.9527
 Frc consts  --     0.3333                 0.3653                 0.5284
 IR Inten    --     3.0196                 2.8836                13.0776

                    22                     23                     24
                     A                      A                      A
 Frequencies --   383.7026               394.3730               415.6111
 Red. masses --     5.7677                 3.6589                 5.7812
 Frc consts  --     0.5003                 0.3353                 0.5884
 IR Inten    --     2.4891                 7.1416                 1.7022

                    25                     26                     27
                     A                      A                      A
 Frequencies --   454.0140               479.5576               481.9251
 Red. masses --     6.7495                 4.4476                 6.0786
 Frc consts  --     0.8197                 0.6026                 0.8318
 IR Inten    --     4.6855                 8.2999                 2.4542

                    28                     29                     30
                     A                      A                      A
 Frequencies --   509.0003               513.1579               525.6058
 Red. masses --     1.9234                 2.6569                 4.8960
 Frc consts  --     0.2936                 0.4122                 0.7969
 IR Inten    --     5.4856                 3.0167                 4.0430

                    31                     32                     33
                     A                      A                      A
 Frequencies --   539.0764               551.1591               556.1285
 Red. masses --     8.3976                 3.7390                 3.5430
 Frc consts  --     1.4378                 0.6692                 0.6456
 IR Inten    --     0.3830                 4.0757                 0.4482

                    34                     35                     36
                     A                      A                      A
 Frequencies --   581.3301               593.9370               601.9900
 Red. masses --     2.9338                 3.3164                 3.1177
 Frc consts  --     0.5841                 0.6893                 0.6657
 IR Inten    --     5.1979                 0.7719                 8.5056

                    37                     38                     39
                     A                      A                      A
 Frequencies --   608.4711               623.9932               629.1710
 Red. masses --     4.3503                 3.9049                 5.4981
 Frc consts  --     0.9490                 0.8958                 1.2823
 IR Inten    --     1.0740                 6.3649                 3.7135

                    40                     41                     42
                     A                      A                      A
 Frequencies --   632.5353               653.7700               664.0915
 Red. masses --     5.3236                 8.0168                 5.0376
 Frc consts  --     1.2549                 2.0188                 1.3090
 IR Inten    --     0.6738                 7.8043                 3.1541

                    43                     44                     45
                     A                      A                      A
 Frequencies --   668.5951               722.1229               726.5216
 Red. masses --     7.0265                 2.1470                 5.5161
 Frc consts  --     1.8506                 0.6596                 1.7155
 IR Inten    --     3.3744                 4.5101                 4.2563

                    46                     47                     48
                     A                      A                      A
 Frequencies --   739.4623               743.6096               748.9520
 Red. masses --     4.3245                 3.4927                 3.7049
 Frc consts  --     1.3932                 1.1379                 1.2244
 IR Inten    --     0.9831                 1.7161                 2.6841

                    49                     50                     51
                     A                      A                      A
 Frequencies --   758.0412               761.0321               792.1811
 Red. masses --     2.4666                 4.9865                 1.2026
 Frc consts  --     0.8351                 1.7016                 0.4447
 IR Inten    --    21.4294                17.2824                31.6493

                    52                     53                     54
                     A                      A                      A
 Frequencies --   807.0464               808.4337               824.3925
 Red. masses --     2.3956                 2.4277                10.3688
 Frc consts  --     0.9193                 0.9348                 4.1519
 IR Inten    --    28.6756                38.4997                20.2434

                    55                     56                     57
                     A                      A                      A
 Frequencies --   834.9027               838.7308               850.2056
 Red. masses --     5.1349                11.8300                 1.4565
 Frc consts  --     2.1089                 4.9032                 0.6203
 IR Inten    --    16.4595                37.6963                55.3663

                    58                     59                     60
                     A                      A                      A
 Frequencies --   853.2894               860.0814               874.8690
 Red. masses --     1.8826                 1.8890                 4.4638
 Frc consts  --     0.8076                 0.8233                 2.0130
 IR Inten    --    14.0745                 6.6628                20.2458

                    61                     62                     63
                     A                      A                      A
 Frequencies --   881.0300               882.2471               885.0979
 Red. masses --     1.5733                 1.5653                 4.7767
 Frc consts  --     0.7195                 0.7178                 2.2048
 IR Inten    --     3.4652                13.5462                17.1371

                    64                     65                     66
                     A                      A                      A
 Frequencies --   898.1170               915.5920               929.4296
 Red. masses --     2.7728                 1.4601                 7.2065
 Frc consts  --     1.3178                 0.7212                 3.6678
 IR Inten    --   123.5374                 0.9678                 0.2495

                    67                     68                     69
                     A                      A                      A
 Frequencies --   973.3153               986.9719               988.8871
 Red. masses --     1.0591                 1.3265                 1.3137
 Frc consts  --     0.5912                 0.7613                 0.7569
 IR Inten    --   133.0980                 1.0931                 0.2535

                    70                     71                     72
                     A                      A                      A
 Frequencies --  1034.1402              1063.4780              1070.6504
 Red. masses --     5.4604                 2.4457                 3.9140
 Frc consts  --     3.4406                 1.6297                 2.6434
 IR Inten    --    27.7766                 3.9688                 4.4032

                    73                     74                     75
                     A                      A                      A
 Frequencies --  1124.9587              1139.0622              1145.1217
 Red. masses --     2.4810                 1.1520                 1.3352
 Frc consts  --     1.8499                 0.8806                 1.0316
 IR Inten    --     9.3123                 9.9089                 0.6279

                    76                     77                     78
                     A                      A                      A
 Frequencies --  1153.9528              1165.6720              1181.9585
 Red. masses --     1.9917                 1.5459                 1.5388
 Frc consts  --     1.5626                 1.2376                 1.2666
 IR Inten    --    17.0798                 2.9802                51.7940

                    79                     80                     81
                     A                      A                      A
 Frequencies --  1189.7974              1204.3339              1216.9362
 Red. masses --     1.4324                 2.0626                 1.9649
 Frc consts  --     1.1947                 1.7626                 1.7144
 IR Inten    --     0.1990                 4.3493                27.9756

                    82                     83                     84
                     A                      A                      A
 Frequencies --  1235.1550              1239.3441              1274.8400
 Red. masses --     2.4757                 1.8831                 1.6841
 Frc consts  --     2.2253                 1.7042                 1.6126
 IR Inten    --     4.4572                30.3864                11.8904

                    85                     86                     87
                     A                      A                      A
 Frequencies --  1281.4156              1297.0246              1323.3957
 Red. masses --     3.0080                 2.7367                 2.5383
 Frc consts  --     2.9101                 2.7125                 2.6192
 IR Inten    --    10.1897                 3.8775                 2.0367

                    88                     89                     90
                     A                      A                      A
 Frequencies --  1336.5481              1338.7677              1342.9116
 Red. masses --     3.5662                 3.8810                 2.4309
 Frc consts  --     3.7534                 4.0983                 2.5829
 IR Inten    --     3.6665                 1.9814                10.5794

                    91                     92                     93
                     A                      A                      A
 Frequencies --  1363.7928              1389.6539              1404.0657
 Red. masses --     4.5124                 4.8005                 4.7140
 Frc consts  --     4.9449                 5.4620                 5.4753
 IR Inten    --     6.8144                 3.8534                46.8374

                    94                     95                     96
                     A                      A                      A
 Frequencies --  1437.1795              1442.6701              1452.5323
 Red. masses --     3.6542                 3.1645                 1.5787
 Frc consts  --     4.4469                 3.8805                 1.9625
 IR Inten    --    56.3164                 9.0074                32.6954

                    97                     98                     99
                     A                      A                      A
 Frequencies --  1458.1510              1464.7928              1499.5267
 Red. masses --     3.3146                 1.2362                 3.2774
 Frc consts  --     4.1523                 1.5627                 4.3420
 IR Inten    --    41.9375                27.8174                 3.2396

                   100                    101                    102
                     A                      A                      A
 Frequencies --  1523.1552              1545.0419              1560.1673
 Red. masses --     4.5413                 5.0253                 6.0418
 Frc consts  --     6.2075                 7.0679                 8.6648
 IR Inten    --    35.1287                28.5725                 4.3165

                   103                    104                    105
                     A                      A                      A
 Frequencies --  1570.8911              1583.6917              1625.8294
 Red. masses --     5.9102                 6.9736                 6.1390
 Frc consts  --     8.5930                10.3050                 9.5609
 IR Inten    --    67.4318                 2.7406                 2.8857

                   106                    107                    108
                     A                      A                      A
 Frequencies --  1636.0397              2227.9619              2234.3749
 Red. masses --     5.6645                 1.0322                 1.0501
 Frc consts  --     8.9331                 3.0188                 3.0889
 IR Inten    --     3.0278               167.9913               150.6160

                   109                    110                    111
                     A                      A                      A
 Frequencies --  3030.9907              3032.2860              3106.1600
 Red. masses --     1.0678                 1.0688                 1.0923
 Frc consts  --     5.7799                 5.7899                 6.2095
 IR Inten    --     8.5202                11.5784                 3.1677

                   112                    113                    114
                     A                      A                      A
 Frequencies --  3108.8896              3193.7269              3193.9561
 Red. masses --     1.0918                 1.0879                 1.0897
 Frc consts  --     6.2175                 6.5381                 6.5497
 IR Inten    --     2.9196                20.6931                 7.4475

                   115                    116                    117
                     A                      A                      A
 Frequencies --  3210.4487              3226.5228              3227.4933
 Red. masses --     1.0916                 1.0926                 1.0950
 Frc consts  --     6.6291                 6.7016                 6.7205
 IR Inten    --     4.8817                 6.2658                 9.8290

                   118                    119                    120
                     A                      A                      A
 Frequencies --  3230.5280              3237.0192              3245.9681
 Red. masses --     1.0927                 1.0931                 1.0936
 Frc consts  --     6.7190                 6.7483                 6.7886
 IR Inten    --     2.4763                 0.1433                 5.0866

 - Thermochemistry -
 -------------------
 Temperature   298.150 Kelvin.  Pressure   1.00000 Atm.
 Atom     1 has atomic number 14 and mass  27.97693

 Molecular mass:   434.01499 amu.
 Principal axes and moments of inertia in atomic units:
                           1         2         3
     Eigenvalues --  4567.93400********************
           X            0.99996  -0.00899   0.00027
           Y            0.00899   0.99996   0.00232
           Z           -0.00029  -0.00232   1.00000
 This molecule is an asymmetric top.
 Rotational symmetry number  1.
 Warning -- assumption of classical behavior for rotation
           may cause significant error
 Rotational temperatures (Kelvin)      0.01896     0.00257     0.00230
 Rotational constants (GHZ):           0.39509     0.05351     0.04788
 Zero-point vibrational energy     771801.7 (Joules/Mol)
                                  184.46503 (Kcal/Mol)
 Warning -- explicit consideration of  37 degrees of freedom as
           vibrations may cause significant error
 Vibrational temperatures:     14.27    29.06    44.32    54.80    66.71
          (Kelvin)             83.90   122.40   134.85   143.99   189.34
                              202.73   248.29   261.97   286.12   318.21
                              341.64   373.36   401.53   448.76   450.26
                              483.14   552.06   567.41   597.97   653.22
                              689.98   693.38   732.34   738.32   756.23
                              775.61   792.99   800.14   836.40   854.54
                              866.13   875.45   897.79   905.24   910.08
                              940.63   955.48   961.96  1038.97  1045.30
                             1063.92  1069.89  1077.57  1090.65  1094.95
                             1139.77  1161.16  1163.15  1186.12  1201.24
                             1206.75  1223.25  1227.69  1237.46  1258.74
                             1267.60  1269.36  1273.46  1292.19  1317.33
                             1337.24  1400.38  1420.03  1422.79  1487.90
                             1530.11  1540.43  1618.56  1638.85  1647.57
                             1660.28  1677.14  1700.57  1711.85  1732.77
                             1750.90  1777.11  1783.14  1834.21  1843.67
                             1866.13  1904.07  1922.99  1926.19  1932.15
                             1962.19  1999.40  2020.13  2067.78  2075.68
                             2089.87  2097.95  2107.51  2157.48  2191.48
                             2222.97  2244.73  2260.16  2278.58  2339.20
                             2353.89  3205.54  3214.76  4360.91  4362.78
                             4469.07  4472.99  4595.05  4595.38  4619.11
                             4642.24  4643.64  4648.00  4657.34  4670.22

 Zero-point correction=                           0.293964 (Hartree/Particle)
 Thermal correction to Energy=                    0.317104
 Thermal correction to Enthalpy=                  0.318048
 Thermal correction to Gibbs Free Energy=         0.237639
 Sum of electronic and zero-point Energies=          -2473.375848
 Sum of electronic and thermal Energies=             -2473.352707
 Sum of electronic and thermal Enthalpies=           -2473.351763
 Sum of electronic and thermal Free Energies=        -2473.432172

                     E (Thermal)             CV                S
                      KCal/Mol        Cal/Mol-Kelvin    Cal/Mol-Kelvin
 Total                  198.986             91.344            169.235
 Electronic               0.000              0.000              0.000
 Translational            0.889              2.981             44.094
 Rotational               0.889              2.981             37.005
 Vibrational            197.208             85.382             88.136
 Vibration     1          0.593              1.987              8.028
 Vibration     2          0.593              1.986              6.614
 Vibration     3          0.594              1.984              5.777
 Vibration     4          0.594              1.982              5.356
 Vibration     5          0.595              1.979              4.967
 Vibration     6          0.596              1.974              4.514
 Vibration     7          0.601              1.960              3.770
 Vibration     8          0.603              1.954              3.581
 Vibration     9          0.604              1.949              3.453
 Vibration    10          0.612              1.922              2.923
 Vibration    11          0.615              1.912              2.792
 Vibration    12          0.626              1.876              2.407
 Vibration    13          0.630              1.864              2.307
 Vibration    14          0.637              1.841              2.144
 Vibration    15          0.648              1.809              1.950
 Vibration    16          0.656              1.783              1.822
 Vibration    17          0.668              1.747              1.665
 Vibration    18          0.679              1.712              1.539
 Vibration    19          0.700              1.651              1.352
 Vibration    20          0.701              1.649              1.347
 Vibration    21          0.717              1.604              1.232
 Vibration    22          0.753              1.505              1.025
 Vibration    23          0.761              1.482              0.984
 Vibration    24          0.779              1.436              0.907
 Vibration    25          0.812              1.352              0.784
 Vibration    26          0.836              1.295              0.711
 Vibration    27          0.838              1.290              0.705
 Vibration    28          0.864              1.230              0.636
 Vibration    29          0.868              1.221              0.626
 Vibration    30          0.881              1.193              0.597
 Vibration    31          0.894              1.164              0.567
 Vibration    32          0.906              1.137              0.542
 Vibration    33          0.912              1.126              0.532
 Vibration    34          0.938              1.072              0.483
 Vibration    35          0.952              1.045              0.460
 Vibration    36          0.960              1.028              0.446
 Vibration    37          0.967              1.014              0.435

 Normal termination of Gaussian 09 at Sun Dec 29 22:14:38 2013.
