 Gaussian 09, Revision C.01,
 Gaussian 09:  EM64L-G09RevC.01 23-Sep-2011

 --------------------------------------------
 #B3LYP/6-31++G(d,p) opt scf=direct freq test
 --------------------------------------------

 Geom opt of No.45 candidate from the CEPDB database with SMILE code of
  c1cc(oc1-c1ccc(-c2cncc3nsnc23)c2cscc12)-c1cncc2nsnc12, HPC, 20131227,
  Shuo Dai, Gaussian09
 ----------------------------------------------------------------------
 Charge =  0 Multiplicity = 1

 SCF Done:  E(RB3LYP) =  -2442.58559358     A.U. after   27 cycles
 SCF Done:  E(RB3LYP) =  -2442.61858994     A.U. after   19 cycles
 SCF Done:  E(RB3LYP) =  -2442.63555459     A.U. after   18 cycles
 SCF Done:  E(RB3LYP) =  -2442.64503486     A.U. after   18 cycles
 SCF Done:  E(RB3LYP) =  -2442.64893838     A.U. after   18 cycles
 SCF Done:  E(RB3LYP) =  -2442.64965435     A.U. after   15 cycles
 SCF Done:  E(RB3LYP) =  -2442.64985881     A.U. after   14 cycles
 SCF Done:  E(RB3LYP) =  -2442.64996701     A.U. after   14 cycles
 SCF Done:  E(RB3LYP) =  -2442.65003836     A.U. after   14 cycles
 SCF Done:  E(RB3LYP) =  -2442.65016460     A.U. after   15 cycles
 SCF Done:  E(RB3LYP) =  -2442.65021344     A.U. after   14 cycles
 SCF Done:  E(RB3LYP) =  -2442.65025628     A.U. after   15 cycles
 SCF Done:  E(RB3LYP) =  -2442.65026134     A.U. after   13 cycles
 SCF Done:  E(RB3LYP) =  -2442.65026421     A.U. after   13 cycles
 SCF Done:  E(RB3LYP) =  -2442.65026481     A.U. after   11 cycles
 SCF Done:  E(RB3LYP) =  -2442.65026501     A.U. after   10 cycles
 SCF Done:  E(RB3LYP) =  -2442.65026509     A.U. after   10 cycles
 Optimization completed.
    -- Stationary point found.
 Normal termination of Gaussian 09 at Sun Dec 29 10:12:59 2013.

 ----------------------------------------------------------------------
 #N Geom=AllCheck Guess=TCheck SCRF=Check Test GenChk RB3LYP/6-31++G(d,
 p) Freq
 ----------------------------------------------------------------------

 Geom opt of No.45 candidate from the CEPDB database with SMILE code of
  c1cc(oc1-c1ccc(-c2cncc3nsnc23)c2cscc12)-c1cncc2nsnc12, HPC, 20131227,
  Shuo Dai, Gaussian09
 ----------------------------------------------------------------------
 Charge =  0 Multiplicity = 1

                         Standard orientation:
 ---------------------------------------------------------------------
 Center     Atomic      Atomic             Coordinates (Angstroms)
 Number     Number       Type             X           Y           Z
 ---------------------------------------------------------------------
      1          6           0       -2.054944   -2.519492   -0.138037
      2          6           0       -3.405907   -2.091755   -0.203766
      3          6           0       -3.390619   -0.716219   -0.131731
      4          8           0       -2.089697   -0.286288   -0.021081
      5          6           0       -1.273891   -1.387566   -0.030427
      6          6           0        0.165380   -1.197388    0.056565
      7          6           0        1.004809   -2.210752   -0.371783
      8          6           0        2.418762   -2.110113   -0.303532
      9          6           0        3.055021   -0.984448    0.177475
     10          6           0        4.534850   -0.936053    0.224307
     11          6           0        5.261408   -1.923438    0.866272
     12          7           0        6.629526   -2.010250    0.937627
     13          6           0        7.363497   -1.090373    0.360550
     14          6           0        6.761940   -0.004070   -0.344391
     15          7           0        7.400157    0.978349   -0.995437
     16         16           0        6.227580    1.921236   -1.650596
     17          7           0        4.886115    1.124851   -1.135734
     18          6           0        5.320500    0.078375   -0.417668
     19          6           0        2.232337    0.096746    0.655456
     20          6           0        2.646857    1.281321    1.246134
     21         16           0        1.316082    2.255960    1.705149
     22          6           0        0.165072    1.119133    1.137229
     23          6           0        0.777812   -0.003133    0.596878
     24          6           0       -4.419276    0.297979   -0.156244
     25          6           0       -4.130154    1.657905   -0.136672
     26          7           0       -5.045246    2.673239   -0.151918
     27          6           0       -6.327994    2.396516   -0.194104
     28          6           0       -6.783856    1.044253   -0.226193
     29          7           0       -8.057040    0.629339   -0.273187
     30         16           0       -8.004505   -1.009774   -0.291526
     31          7           0       -6.376295   -1.247196   -0.240207
     32          6           0       -5.817858   -0.030604   -0.207431
     33          1           0       -1.700076   -3.539542   -0.143660
     34          1           0       -4.291291   -2.702741   -0.285652
     35          1           0        0.576558   -3.108116   -0.806449
     36          1           0        3.014707   -2.934963   -0.682292
     37          1           0        4.729698   -2.716570    1.384017
     38          1           0        8.446059   -1.171581    0.423368
     39          1           0        3.655526    1.626538    1.413327
     40          1           0       -0.888861    1.321450    1.234820
     41          1           0       -3.094716    1.979743   -0.113657
     42          1           0       -7.039560    3.218052   -0.204936
 ---------------------------------------------------------------------

 SCF Done:  E(RB3LYP) =  -2442.65026509     A.U. after    2 cycles

 The electronic state is 1-A.
 Alpha  occ. eigenvalues --  -89.00108 -89.00044 -88.93620 -19.23845 -14.40027
 Alpha  occ. eigenvalues --  -14.39974 -14.39632 -14.39482 -14.36415 -14.36192
 Alpha  occ. eigenvalues --  -10.27166 -10.27112 -10.27030 -10.26922 -10.26595
 Alpha  occ. eigenvalues --  -10.26511 -10.25791 -10.25304 -10.24707 -10.24489
 Alpha  occ. eigenvalues --  -10.24294 -10.23846 -10.23128 -10.22788 -10.22749
 Alpha  occ. eigenvalues --  -10.22682 -10.22240 -10.22043 -10.21321 -10.21237
 Alpha  occ. eigenvalues --  -10.21068 -10.21002  -8.05412  -8.05365  -7.99497
 Alpha  occ. eigenvalues --   -6.01959  -6.01917  -6.01376  -6.01333  -6.01189
 Alpha  occ. eigenvalues --   -6.01127  -5.95880  -5.95499  -5.95316  -1.13359
 Alpha  occ. eigenvalues --   -1.04535  -1.04523  -0.96562  -0.96330  -0.91904
 Alpha  occ. eigenvalues --   -0.91800  -0.91010  -0.86102  -0.84466  -0.83482
 Alpha  occ. eigenvalues --   -0.81951  -0.80735  -0.79728  -0.77741  -0.75350
 Alpha  occ. eigenvalues --   -0.74696  -0.71976  -0.69271  -0.68361  -0.66024
 Alpha  occ. eigenvalues --   -0.65167  -0.64732  -0.63288  -0.62310  -0.61436
 Alpha  occ. eigenvalues --   -0.59389  -0.58506  -0.57713  -0.54787  -0.54228
 Alpha  occ. eigenvalues --   -0.53632  -0.53394  -0.53292  -0.51369  -0.49719
 Alpha  occ. eigenvalues --   -0.48806  -0.48425  -0.48183  -0.47809  -0.47625
 Alpha  occ. eigenvalues --   -0.47194  -0.46319  -0.43835  -0.43646  -0.43282
 Alpha  occ. eigenvalues --   -0.42647  -0.42164  -0.42057  -0.41503  -0.40703
 Alpha  occ. eigenvalues --   -0.40448  -0.40291  -0.40142  -0.39679  -0.38074
 Alpha  occ. eigenvalues --   -0.37697  -0.36487  -0.36155  -0.35892  -0.35305
 Alpha  occ. eigenvalues --   -0.35144  -0.34877  -0.32773  -0.32657  -0.31704
 Alpha  occ. eigenvalues --   -0.30748  -0.30190  -0.29882  -0.28605  -0.28224
 Alpha  occ. eigenvalues --   -0.28056  -0.26616  -0.26352  -0.23728  -0.20394
 Alpha virt. eigenvalues --   -0.11924  -0.11562  -0.08404  -0.04309  -0.02903
 Alpha virt. eigenvalues --   -0.02600  -0.02337  -0.02099  -0.01920  -0.01141
 Alpha virt. eigenvalues --   -0.00759  -0.00653  -0.00051   0.00304   0.00435

 Mulliken atomic charges:
              1
     1  C   -0.417491
     2  C   -0.372496
     3  C    0.514882
     4  O   -0.268900
     5  C    0.296597
     6  C    0.307240
     7  C   -0.324683
     8  C   -0.399045
     9  C   -0.425834
    10  C   -0.600342
    11  C   -0.506267
    12  N   -0.083608
    13  C   -0.202704
    14  C    0.331238
    15  N   -0.423891
    16  S    0.876753
    17  N   -0.366736
    18  C    0.081639
    19  C    0.203845
    20  C    0.158547
    21  S    0.154358
    22  C   -0.100023
    23  C    0.454481
    24  C    0.276464
    25  C   -0.727205
    26  N   -0.115700
    27  C   -0.152265
    28  C    0.669927
    29  N   -0.420744
    30  S    0.845512
    31  N   -0.478323
    32  C   -0.466191
    33  H    0.141880
    34  H    0.179661
    35  H    0.075877
    36  H    0.168455
    37  H    0.175185
    38  H    0.180870
    39  H    0.161981
    40  H    0.185894
    41  H    0.228513
    42  H    0.182653
 Sum of Mulliken atomic charges =  -0.00000

 Dipole moment (field-independent basis, Debye):
    X=             -0.5069    Y=             -1.5573    Z=             -0.4257  Tot=              1.6921
 Quadrupole moment (field-independent basis, Debye-Ang):
   XX=           -204.3719   YY=           -199.1933   ZZ=           -205.2367
   XY=             17.5882   XZ=             -3.7441   YZ=              4.5014

  Exact polarizability: 734.702 -25.001 384.496  10.910  -2.371 208.086
 Approx polarizability:1033.167 -63.255 804.370  23.702  -7.019 363.699

                     1                      2                      3
                     A                      A                      A
 Frequencies --    13.1402                17.2830                25.4018
 Red. masses --    11.0538                10.7089                 9.4594
 Frc consts  --     0.0011                 0.0019                 0.0036
 IR Inten    --     0.0732                 0.3712                 0.1038

                     4                      5                      6
                     A                      A                      A
 Frequencies --    34.1414                47.5191                63.3051
 Red. masses --    10.9946                 7.3275                 9.7632
 Frc consts  --     0.0076                 0.0097                 0.0231
 IR Inten    --     0.1131                 0.1022                 0.0345

                     7                      8                      9
                     A                      A                      A
 Frequencies --    84.8403                97.8541               112.4512
 Red. masses --     5.6670                 7.0202                11.2713
 Frc consts  --     0.0240                 0.0396                 0.0840
 IR Inten    --     1.3320                 0.0777                 0.3438

                    10                     11                     12
                     A                      A                      A
 Frequencies --   135.5443               166.3249               174.0259
 Red. masses --     8.0112                 7.2590                 7.5016
 Frc consts  --     0.0867                 0.1183                 0.1339
 IR Inten    --     0.9254                 1.2181                 2.1170

                    13                     14                     15
                     A                      A                      A
 Frequencies --   177.8064               191.0452               211.5699
 Red. masses --     6.0485                 6.8960                 8.2623
 Frc consts  --     0.1127                 0.1483                 0.2179
 IR Inten    --     0.1918                 1.3080                 0.3055

                    16                     17                     18
                     A                      A                      A
 Frequencies --   214.3373               246.3666               266.5976
 Red. masses --     8.7659                 6.6528                 7.8751
 Frc consts  --     0.2373                 0.2379                 0.3298
 IR Inten    --     1.4249                 0.4754                 0.6133

                    19                     20                     21
                     A                      A                      A
 Frequencies --   268.3809               295.5671               321.7982
 Red. masses --     5.6312                 5.5451                 6.8742
 Frc consts  --     0.2390                 0.2854                 0.4194
 IR Inten    --     0.0782                 0.2242                 1.6834

                    22                     23                     24
                     A                      A                      A
 Frequencies --   361.8013               382.5265               413.6509
 Red. masses --     6.2971                 6.0495                 6.9343
 Frc consts  --     0.4857                 0.5215                 0.6991
 IR Inten    --     1.8023                 1.6861                 2.1995

                    25                     26                     27
                     A                      A                      A
 Frequencies --   438.1120               458.1829               465.1270
 Red. masses --     6.6902                 6.7800                 6.8381
 Frc consts  --     0.7566                 0.8386                 0.8716
 IR Inten    --     2.7683                 9.0292                 3.2485

                    28                     29                     30
                     A                      A                      A
 Frequencies --   476.2171               498.2388               518.3090
 Red. masses --     7.1464                10.7247                10.8691
 Frc consts  --     0.9549                 1.5686                 1.7204
 IR Inten    --     5.0425                16.3670                 3.2669

                    31                     32                     33
                     A                      A                      A
 Frequencies --   524.6813               534.0959               549.8819
 Red. masses --    12.0052                 8.4137                 9.5490
 Frc consts  --     1.9472                 1.4141                 1.7012
 IR Inten    --    11.7741                 2.9303                 0.0209

                    34                     35                     36
                     A                      A                      A
 Frequencies --   564.4710               580.6504               588.0515
 Red. masses --     5.0923                 6.2498                 4.7984
 Frc consts  --     0.9560                 1.2415                 0.9776
 IR Inten    --     0.6425                 4.2689                 3.7388

                    37                     38                     39
                     A                      A                      A
 Frequencies --   590.1281               591.2313               621.3912
 Red. masses --     5.1372                 4.9966                 7.8952
 Frc consts  --     1.0541                 1.0291                 1.7961
 IR Inten    --     6.2444                 7.0017                 0.4044

                    40                     41                     42
                     A                      A                      A
 Frequencies --   628.4378               639.9381               651.2612
 Red. masses --     7.2062                 5.3200                 1.2831
 Frc consts  --     1.6768                 1.2836                 0.3206
 IR Inten    --     3.5842                 0.0843                 0.3245

                    43                     44                     45
                     A                      A                      A
 Frequencies --   658.6636               674.7183               692.4821
 Red. masses --     4.9048                 3.9244                 7.7154
 Frc consts  --     1.2537                 1.0526                 2.1798
 IR Inten    --     0.5335                 0.4108                 2.6794

                    46                     47                     48
                     A                      A                      A
 Frequencies --   698.5780               730.9493               743.5369
 Red. masses --     4.6235                11.6950                 8.4776
 Frc consts  --     1.3294                 3.6815                 2.7614
 IR Inten    --     2.0702                 6.2695                 2.4659

                    49                     50                     51
                     A                      A                      A
 Frequencies --   771.1224               778.2497               784.6939
 Red. masses --     5.5589                 1.5827                 3.2460
 Frc consts  --     1.9475                 0.5648                 1.1776
 IR Inten    --     1.3863                36.5279                 7.5384

                    52                     53                     54
                     A                      A                      A
 Frequencies --   796.2149               816.5951               823.7501
 Red. masses --     5.0400                 1.4492                11.0526
 Frc consts  --     1.8825                 0.5694                 4.4188
 IR Inten    --     2.1491                53.2681                32.7238

                    55                     56                     57
                     A                      A                      A
 Frequencies --   825.7642               836.1359               838.0145
 Red. masses --    11.2590                11.3122                13.7576
 Frc consts  --     4.5234                 4.6596                 5.6924
 IR Inten    --    26.4608                62.5259                34.9429

                    58                     59                     60
                     A                      A                      A
 Frequencies --   852.5950               865.3942               883.4531
 Red. masses --     1.4863                 6.2044                 7.7675
 Frc consts  --     0.6366                 2.7376                 3.5719
 IR Inten    --    22.8995                12.2806                13.8886

                    61                     62                     63
                     A                      A                      A
 Frequencies --   893.0561               894.4082               896.2078
 Red. masses --     1.4722                 5.1832                 4.0811
 Frc consts  --     0.6918                 2.4430                 1.9313
 IR Inten    --    18.9895                24.2254                 9.8823

                    64                     65                     66
                     A                      A                      A
 Frequencies --   899.7470               906.4358               911.5899
 Red. masses --     1.4068                 4.5748                 2.6515
 Frc consts  --     0.6710                 2.2146                 1.2982
 IR Inten    --     1.8188                 4.1531                19.1763

                    67                     68                     69
                     A                      A                      A
 Frequencies --   912.9096               918.6434               946.6865
 Red. masses --     2.4471                 6.5071                 1.3945
 Frc consts  --     1.2016                 3.2354                 0.7363
 IR Inten    --    12.5497                 3.6188                 0.0318

                    70                     71                     72
                     A                      A                      A
 Frequencies --   950.3419               965.2894              1005.2853
 Red. masses --     1.4782                 1.4831                 5.6559
 Frc consts  --     0.7866                 0.8142                 3.3677
 IR Inten    --     0.6421                 0.8995                 7.3364

                    73                     74                     75
                     A                      A                      A
 Frequencies --  1016.5110              1052.9000              1059.9720
 Red. masses --     6.6793                 2.8567                 1.4534
 Frc consts  --     4.0664                 1.8659                 0.9621
 IR Inten    --     6.5437                31.1299                31.3563

                    76                     77                     78
                     A                      A                      A
 Frequencies --  1117.8279              1129.4816              1137.4079
 Red. masses --     2.7585                 3.2896                 3.2619
 Frc consts  --     2.0309                 2.4726                 2.4863
 IR Inten    --     0.0963                 8.7160                 4.6131

                    79                     80                     81
                     A                      A                      A
 Frequencies --  1178.8020              1201.6094              1208.9224
 Red. masses --     1.6174                 1.5535                 2.9946
 Frc consts  --     1.3242                 1.3216                 2.5786
 IR Inten    --     4.6374                 8.1358                 1.9228

                    82                     83                     84
                     A                      A                      A
 Frequencies --  1221.6114              1239.5104              1299.5452
 Red. masses --     2.1663                 2.4549                 2.8150
 Frc consts  --     1.9048                 2.2222                 2.8010
 IR Inten    --     3.5462                 1.8885                41.7573

                    85                     86                     87
                     A                      A                      A
 Frequencies --  1306.3754              1306.6442              1323.3808
 Red. masses --     2.6981                 3.1437                 2.0514
 Frc consts  --     2.7130                 3.1623                 2.1168
 IR Inten    --    13.4172                13.7268                23.4601

                    88                     89                     90
                     A                      A                      A
 Frequencies --  1328.9085              1354.0237              1366.9151
 Red. masses --     1.6461                 2.2340                 5.8107
 Frc consts  --     1.7127                 2.4132                 6.3968
 IR Inten    --    15.4308                11.0773                74.9259

                    91                     92                     93
                     A                      A                      A
 Frequencies --  1367.7190              1370.6910              1373.5261
 Red. masses --     5.6060                 5.2563                 4.0262
 Frc consts  --     6.1787                 5.8185                 4.4753
 IR Inten    --     0.5216                 4.3809                10.9405

                    94                     95                     96
                     A                      A                      A
 Frequencies --  1378.8947              1385.1251              1399.1486
 Red. masses --     3.8533                 5.9923                 2.9591
 Frc consts  --     4.3166                 6.7737                 3.4130
 IR Inten    --     5.6236                 9.8724                21.6250

                    97                     98                     99
                     A                      A                      A
 Frequencies --  1417.8862              1429.2695              1442.2956
 Red. masses --     3.4222                 3.6756                 4.6042
 Frc consts  --     4.0536                 4.4239                 5.6431
 IR Inten    --     1.3268                 2.6456                11.4624

                   100                    101                    102
                     A                      A                      A
 Frequencies --  1509.5076              1509.8429              1530.5322
 Red. masses --     6.5441                 6.8928                 6.7495
 Frc consts  --     8.7855                 9.2579                 9.3156
 IR Inten    --     5.4620                10.5270                21.1132

                   103                    104                    105
                     A                      A                      A
 Frequencies --  1544.1422              1550.2839              1556.1874
 Red. masses --     5.0072                 6.1208                 6.8952
 Frc consts  --     7.0343                 8.6672                 9.8383
 IR Inten    --    28.6739                 8.9130               178.9622

                   106                    107                    108
                     A                      A                      A
 Frequencies --  1573.8060              1598.6863              1612.8302
 Red. masses --     5.9799                 6.4569                 6.1537
 Frc consts  --     8.7267                 9.7230                 9.4312
 IR Inten    --    19.9343                20.7028                28.1622

                   109                    110                    111
                     A                      A                      A
 Frequencies --  1628.0653              1630.3833              3185.6822
 Red. masses --     6.3735                 6.7144                 1.0911
 Frc consts  --     9.9534                10.5156                 6.5239
 IR Inten    --     5.3495                67.8609                 9.4659

                   112                    113                    114
                     A                      A                      A
 Frequencies --  3191.0063              3191.0710              3195.9938
 Red. masses --     1.0885                 1.0914                 1.0913
 Frc consts  --     6.5303                 6.5478                 6.5677
 IR Inten    --    24.4397                 4.3150                 5.1749

                   115                    116                    117
                     A                      A                      A
 Frequencies --  3207.2942              3214.8006              3270.4425
 Red. masses --     1.0930                 1.0906                 1.0949
 Frc consts  --     6.6242                 6.6410                 6.8996
 IR Inten    --     8.2675                13.1934                 3.9226

                   118                    119                    120
                     A                      A                      A
 Frequencies --  3285.1303              3294.2804              3306.1303
 Red. masses --     1.0932                 1.0994                 1.0931
 Frc consts  --     6.9509                 7.0293                 7.0398
 IR Inten    --     0.6691                 1.3268                 5.1188

 - Thermochemistry -
 -------------------
 Temperature   298.150 Kelvin.  Pressure   1.00000 Atm.
 Atom     1 has atomic number  6 and mass  12.00000

 Molecular mass:   470.00782 amu.
 Principal axes and moments of inertia in atomic units:
                           1         2         3
     Eigenvalues --  5053.60987********************
           X            0.99999  -0.00362   0.00125
           Y            0.00362   0.99998   0.00553
           Z           -0.00127  -0.00552   0.99998
 This molecule is an asymmetric top.
 Rotational symmetry number  1.
 Warning -- assumption of classical behavior for rotation
           may cause significant error
 Rotational temperatures (Kelvin)      0.01714     0.00200     0.00187
 Rotational constants (GHZ):           0.35712     0.04158     0.03897
 Zero-point vibrational energy     738180.8 (Joules/Mol)
                                  176.42946 (Kcal/Mol)
 Warning -- explicit consideration of  38 degrees of freedom as
           vibrations may cause significant error
 Vibrational temperatures:     18.91    24.87    36.55    49.12    68.37
          (Kelvin)             91.08   122.07   140.79   161.79   195.02
                              239.30   250.38   255.82   274.87   304.40
                              308.38   354.47   383.57   386.14   425.25
                              463.00   520.55   550.37   595.15   630.34
                              659.22   669.21   685.17   716.85   745.73
                              754.90   768.44   791.16   812.15   835.43
                              846.07   849.06   850.65   894.04   904.18
                              920.73   937.02   947.67   970.77   996.33
                             1005.10  1051.67  1069.78  1109.47  1119.73
                             1129.00  1145.57  1174.90  1185.19  1188.09
                             1203.01  1205.71  1226.69  1245.11  1271.09
                             1284.91  1286.85  1289.44  1294.53  1304.16
                             1311.57  1313.47  1321.72  1362.07  1367.33
                             1388.83  1446.38  1462.53  1514.89  1525.06
                             1608.30  1625.07  1636.47  1696.03  1728.85
                             1739.37  1757.62  1783.38  1869.75  1879.58
                             1879.97  1904.05  1912.00  1948.14  1966.68
                             1967.84  1972.12  1976.20  1983.92  1992.88
                             2013.06  2040.02  2056.40  2075.14  2171.84
                             2172.32  2202.09  2221.67  2230.51  2239.00
                             2264.35  2300.15  2320.50  2342.42  2345.75
                             4583.48  4591.14  4591.23  4598.32  4614.58
                             4625.38  4705.43  4726.56  4739.73  4756.78

 Zero-point correction=                           0.281158 (Hartree/Particle)
 Thermal correction to Energy=                    0.304814
 Thermal correction to Enthalpy=                  0.305758
 Thermal correction to Gibbs Free Energy=         0.224194
 Sum of electronic and zero-point Energies=          -2442.369107
 Sum of electronic and thermal Energies=             -2442.345451
 Sum of electronic and thermal Enthalpies=           -2442.344507
 Sum of electronic and thermal Free Energies=        -2442.426071

                     E (Thermal)             CV                S
                      KCal/Mol        Cal/Mol-Kelvin    Cal/Mol-Kelvin
 Total                  191.273             93.628            171.665
 Electronic               0.000              0.000              0.000
 Translational            0.889              2.981             44.331
 Rotational               0.889              2.981             37.561
 Vibrational            189.496             87.666             89.774
 Vibration     1          0.593              1.987              7.469
 Vibration     2          0.593              1.986              6.924
 Vibration     3          0.593              1.985              6.160
 Vibration     4          0.594              1.983              5.573
 Vibration     5          0.595              1.979              4.918
 Vibration     6          0.597              1.972              4.351
 Vibration     7          0.601              1.960              3.776
 Vibration     8          0.603              1.951              3.497
 Vibration     9          0.607              1.939              3.226
 Vibration    10          0.613              1.918              2.866
 Vibration    11          0.624              1.884              2.477
 Vibration    12          0.627              1.874              2.392
 Vibration    13          0.628              1.870              2.351
 Vibration    14          0.634              1.852              2.218
 Vibration    15          0.643              1.823              2.030
 Vibration    16          0.644              1.819              2.006
 Vibration    17          0.661              1.769              1.756
 Vibration    18          0.672              1.734              1.618
 Vibration    19          0.673              1.731              1.607
 Vibration    20          0.690              1.682              1.442
 Vibration    21          0.707              1.632              1.301
 Vibration    22          0.736              1.551              1.114
 Vibration    23          0.752              1.507              1.029
 Vibration    24          0.777              1.441              0.914
 Vibration    25          0.798              1.387              0.833
 Vibration    26          0.816              1.343              0.771
 Vibration    27          0.823              1.327              0.751
 Vibration    28          0.833              1.303              0.720
 Vibration    29          0.854              1.254              0.663
 Vibration    30          0.873              1.209              0.614
 Vibration    31          0.880              1.195              0.599
 Vibration    32          0.889              1.175              0.578
 Vibration    33          0.905              1.140              0.544
 Vibration    34          0.920              1.108              0.515
 Vibration    35          0.937              1.073              0.484
 Vibration    36          0.945              1.057              0.471
 Vibration    37          0.947              1.053              0.467
 Vibration    38          0.949              1.050              0.465

 Optimization completed.
    -- Stationary point found.
 Normal termination of Gaussian 09 at Sun Dec 29 12:24:14 2013.
