 Gaussian 09, Revision C.01,
 Gaussian 09:  EM64L-G09RevC.01 23-Sep-2011

 --------------------------------------------
 #B3LYP/6-31++G(d,p) opt scf=direct freq test
 --------------------------------------------

 Geom opt of No.51 candidate from the CEPDB database with SMILE code of
  [SiH2]1C(=Cc2cnc3c(c12)c1cscc1c1ccc2cscc2c31)c1nccc2nsnc12, HPC, 2013
 1227, Shuo Dai, Gaussian09
 ----------------------------------------------------------------------
 Charge =  0 Multiplicity = 1

 SCF Done:  E(RB3LYP) =  -2624.61049054     A.U. after   29 cycles
 SCF Done:  E(RB3LYP) =  -2624.67472176     A.U. after   25 cycles
 SCF Done:  E(RB3LYP) =  -2624.73029463     A.U. after   19 cycles
 SCF Done:  E(RB3LYP) =  -2624.78211137     A.U. after   19 cycles
 SCF Done:  E(RB3LYP) =  -2624.83412897     A.U. after   19 cycles
 SCF Done:  E(RB3LYP) =  -2624.85322047     A.U. after   18 cycles
 SCF Done:  E(RB3LYP) =  -2624.87136760     A.U. after   27 cycles
 SCF Done:  E(RB3LYP) =  -2624.87747963     A.U. after   19 cycles
 SCF Done:  E(RB3LYP) =  -2624.88066796     A.U. after   18 cycles
 SCF Done:  E(RB3LYP) =  -2624.88228541     A.U. after   33 cycles
 SCF Done:  E(RB3LYP) =  -2624.88832909     A.U. after   13 cycles
 SCF Done:  E(RB3LYP) =  -2624.88836000     A.U. after   12 cycles
 SCF Done:  E(RB3LYP) =  -2624.88837141     A.U. after   11 cycles
 SCF Done:  E(RB3LYP) =  -2624.88837511     A.U. after   11 cycles
 SCF Done:  E(RB3LYP) =  -2624.88837674     A.U. after   11 cycles
 SCF Done:  E(RB3LYP) =  -2624.88837774     A.U. after   10 cycles
 SCF Done:  E(RB3LYP) =  -2624.88837837     A.U. after   10 cycles
 SCF Done:  E(RB3LYP) =  -2624.88837846     A.U. after    9 cycles
 SCF Done:  E(RB3LYP) =  -2624.88837847     A.U. after    8 cycles
 Optimization completed.
    -- Stationary point found.
 Normal termination of Gaussian 09 at Sun Dec 29 15:10:14 2013.

 ----------------------------------------------------------------------
 #N Geom=AllCheck Guess=TCheck SCRF=Check Test GenChk RB3LYP/6-31++G(d,
 p) Freq
 ----------------------------------------------------------------------

 Geom opt of No.51 candidate from the CEPDB database with SMILE code of
  [SiH2]1C(=Cc2cnc3c(c12)c1cscc1c1ccc2cscc2c31)c1nccc2nsnc12, HPC, 2013
 1227, Shuo Dai, Gaussian09
 ----------------------------------------------------------------------
 Charge =  0 Multiplicity = 1

                         Standard orientation:
 ---------------------------------------------------------------------
 Center     Atomic      Atomic             Coordinates (Angstroms)
 Number     Number       Type             X           Y           Z
 ---------------------------------------------------------------------
      1         14           0        1.721283    1.711912    0.000036
      2          1           0        1.776716    2.567313    1.210542
      3          1           0        1.776846    2.567257   -1.210507
      4          6           0        2.914470    0.257005    0.000063
      5          6           0        2.190270   -0.899026    0.000082
      6          6           0        0.733816   -0.760141    0.000053
      7          6           0       -0.161098   -1.838552    0.000054
      8          7           0       -1.477654   -1.682913    0.000032
      9          6           0       -2.014726   -0.442235   -0.000015
     10          6           0       -1.179493    0.729992   -0.000044
     11          6           0        0.212870    0.554269    0.000012
     12          6           0       -1.829784    2.033991   -0.000057
     13          6           0       -1.241003    3.283975   -0.000087
     14         16           0       -2.410434    4.546238   -0.000056
     15          6           0       -3.716235    3.426210   -0.000012
     16          6           0       -3.271727    2.116935    0.000012
     17          6           0       -4.092314    0.915170    0.000033
     18          6           0       -5.524411    1.049731    0.000089
     19          6           0       -6.353347   -0.030487    0.000100
     20          6           0       -5.791305   -1.342758    0.000044
     21          6           0       -6.488557   -2.539084    0.000033
     22         16           0       -5.415772   -3.876382   -0.000107
     23          6           0       -4.018964   -2.871474   -0.000027
     24          6           0       -4.344838   -1.521414   -0.000002
     25          6           0       -3.478462   -0.346127   -0.000007
     26          6           0        4.355791    0.419356    0.000036
     27          7           0        4.798621    1.673915    0.000022
     28          6           0        6.136531    1.949631   -0.000028
     29          6           0        7.140254    1.010717   -0.000035
     30          6           0        6.732448   -0.349758   -0.000018
     31          7           0        7.522377   -1.433277   -0.000002
     32         16           0        6.521229   -2.736184   -0.000021
     33          7           0        5.062870   -1.976519   -0.000010
     34          6           0        5.318903   -0.663572    0.000012
     35          1           0        2.639973   -1.888060    0.000094
     36          1           0        0.207815   -2.864179    0.000097
     37          1           0       -0.195391    3.549154   -0.000206
     38          1           0       -4.729819    3.797974    0.000084
     39          1           0       -5.953363    2.045023    0.000138
     40          1           0       -7.432241    0.094812    0.000159
     41          1           0       -7.560198   -2.681411    0.000070
     42          1           0       -3.036038   -3.307919   -0.000042
     43          1           0        6.380367    3.008567    0.000006
     44          1           0        8.188971    1.283395   -0.000028
 ---------------------------------------------------------------------

 SCF Done:  E(RB3LYP) =  -2624.88837847     A.U. after    2 cycles

 The electronic state is 1-A.
 Alpha  occ. eigenvalues --  -88.99763 -88.93315 -88.92351 -66.14523 -14.39820
 Alpha  occ. eigenvalues --  -14.39254 -14.35789 -14.34272 -10.26813 -10.26660
 Alpha  occ. eigenvalues --  -10.26583 -10.24670 -10.24660 -10.23617 -10.23069
 Alpha  occ. eigenvalues --  -10.22881 -10.22656 -10.22390 -10.22226 -10.21983
 Alpha  occ. eigenvalues --  -10.21954 -10.21815 -10.21769 -10.21708 -10.21703
 Alpha  occ. eigenvalues --  -10.21189 -10.20935 -10.20831 -10.20750 -10.20692
 Alpha  occ. eigenvalues --  -10.20263 -10.20254  -8.05086  -7.99208  -7.98269
 Alpha  occ. eigenvalues --   -6.01640  -6.01057  -6.00847  -5.95608  -5.95229
 Alpha  occ. eigenvalues --   -5.94984  -5.94651  -5.94273  -5.94077  -5.29206
 Alpha  occ. eigenvalues --   -3.65113  -3.65047  -3.65028  -1.04232  -0.96349
 Alpha  occ. eigenvalues --   -0.95823  -0.91452  -0.90814  -0.89613  -0.85348
 Alpha  occ. eigenvalues --   -0.84735  -0.81937  -0.81811  -0.80038  -0.78061
 Alpha  occ. eigenvalues --   -0.77072  -0.74343  -0.73373  -0.72499  -0.70862
 Alpha  occ. eigenvalues --   -0.68940  -0.66246  -0.65187  -0.64594  -0.62612
 Alpha  occ. eigenvalues --   -0.61434  -0.60745  -0.58227  -0.57554  -0.56981
 Alpha  occ. eigenvalues --   -0.55485  -0.53926  -0.53260  -0.52154  -0.51507
 Alpha  occ. eigenvalues --   -0.50690  -0.50195  -0.48909  -0.48403  -0.47565
 Alpha  occ. eigenvalues --   -0.46388  -0.46151  -0.45048  -0.44554  -0.43731
 Alpha  occ. eigenvalues --   -0.43223  -0.42012  -0.41373  -0.41290  -0.41125
 Alpha  occ. eigenvalues --   -0.40496  -0.40307  -0.40192  -0.39908  -0.38575
 Alpha  occ. eigenvalues --   -0.38059  -0.37286  -0.36157  -0.35897  -0.35712
 Alpha  occ. eigenvalues --   -0.35304  -0.34901  -0.34603  -0.34264  -0.33159
 Alpha  occ. eigenvalues --   -0.32502  -0.32037  -0.31478  -0.30198  -0.29892
 Alpha  occ. eigenvalues --   -0.28452  -0.28275  -0.27311  -0.26154  -0.24114
 Alpha  occ. eigenvalues --   -0.23555  -0.23356  -0.20203
 Alpha virt. eigenvalues --   -0.12053  -0.08580  -0.06443  -0.05440  -0.03079
 Alpha virt. eigenvalues --   -0.02252  -0.01929  -0.01196  -0.00851  -0.00747
 Alpha virt. eigenvalues --   -0.00174   0.00117   0.00263   0.00869   0.01115

 Mulliken atomic charges:
              1
     1  Si   0.881016
     2  H   -0.093703
     3  H   -0.093714
     4  C   -0.745372
     5  C   -0.402007
     6  C   -0.226189
     7  C    0.252929
     8  N   -0.092954
     9  C   -0.349425
    10  C    0.365115
    11  C    0.143050
    12  C   -0.121978
    13  C   -0.041643
    14  S    0.129627
    15  C   -0.060642
    16  C    0.030909
    17  C    0.775692
    18  C   -0.988304
    19  C   -0.460976
    20  C    0.162586
    21  C    0.683017
    22  S    0.023777
    23  C   -0.216602
    24  C   -0.519655
    25  C   -0.260664
    26  C    0.065088
    27  N   -0.114185
    28  C    0.045235
    29  C   -0.369891
    30  C   -0.014146
    31  N   -0.392025
    32  S    0.864588
    33  N   -0.483859
    34  C    0.135042
    35  H    0.206424
    36  H    0.138317
    37  H    0.129539
    38  H    0.190835
    39  H   -0.024807
    40  H    0.099807
    41  H    0.180690
    42  H    0.243055
    43  H    0.151232
    44  H    0.175172
 Sum of Mulliken atomic charges =  -0.00000

 Dipole moment (field-independent basis, Debye):
    X=              0.2117    Y=              0.7873    Z=              0.0001  Tot=              0.8152
 Quadrupole moment (field-independent basis, Debye-Ang):
   XX=           -187.9141   YY=           -200.1051   ZZ=           -218.5131
   XY=             -4.7912   XZ=             -0.0008   YZ=              0.0004

  Exact polarizability: 789.375  19.089 506.335  -0.000   0.000 183.311
 Approx polarizability:1160.440  31.301 972.804  -0.006   0.001 310.575

                     1                      2                      3
                     A                      A                      A
 Frequencies --    16.4181                20.7300                37.0803
 Red. masses --     6.0489                11.0363                 8.6065
 Frc consts  --     0.0010                 0.0028                 0.0070
 IR Inten    --     0.0973                 0.0215                 0.1037

                     4                      5                      6
                     A                      A                      A
 Frequencies --    42.5321                55.5313                88.9961
 Red. masses --    10.8116                 6.7275                 6.1528
 Frc consts  --     0.0115                 0.0122                 0.0287
 IR Inten    --     0.3034                 0.0049                 0.2485

                     7                      8                      9
                     A                      A                      A
 Frequencies --   103.4515               113.6428               128.6769
 Red. masses --     4.6997                12.6735                 4.9374
 Frc consts  --     0.0296                 0.0964                 0.0482
 IR Inten    --     0.5340                 0.4236                 0.4642

                    10                     11                     12
                     A                      A                      A
 Frequencies --   134.3659               156.3617               188.1829
 Red. masses --    10.2461                 5.4977                 6.4430
 Frc consts  --     0.1090                 0.0792                 0.1344
 IR Inten    --     0.3909                 0.5065                 0.0177

                    13                     14                     15
                     A                      A                      A
 Frequencies --   203.6211               212.4868               215.3451
 Red. masses --     6.0667                 8.8423                 6.2397
 Frc consts  --     0.1482                 0.2352                 0.1705
 IR Inten    --     2.6902                 0.3715                 1.0811

                    16                     17                     18
                     A                      A                      A
 Frequencies --   248.9793               252.9717               274.2655
 Red. masses --     6.1309                10.0325                 9.1777
 Frc consts  --     0.2239                 0.3783                 0.4067
 IR Inten    --     3.4846                 0.8393                 4.2798

                    19                     20                     21
                     A                      A                      A
 Frequencies --   293.7411               294.3243               341.5516
 Red. masses --     3.5376                 9.5404                 5.3861
 Frc consts  --     0.1798                 0.4869                 0.3702
 IR Inten    --     0.0285                10.6146                 2.9559

                    22                     23                     24
                     A                      A                      A
 Frequencies --   356.3622               374.9725               393.9491
 Red. masses --     3.6819                 7.5357                 3.4203
 Frc consts  --     0.2755                 0.6243                 0.3127
 IR Inten    --     0.7418                 7.8997                 0.3212

                    25                     26                     27
                     A                      A                      A
 Frequencies --   415.1139               442.4000               456.5263
 Red. masses --     7.8412                 7.7864                 8.8111
 Frc consts  --     0.7961                 0.8979                 1.0820
 IR Inten    --     0.8670                 6.9902                 7.6268

                    28                     29                     30
                     A                      A                      A
 Frequencies --   458.6783               465.0929               469.8814
 Red. masses --     4.7730                 4.1877                 7.2255
 Frc consts  --     0.5916                 0.5337                 0.9399
 IR Inten    --     0.0069                 0.0644                 1.3754

                    31                     32                     33
                     A                      A                      A
 Frequencies --   499.9785               512.5752               515.7591
 Red. masses --     5.9312                10.4242                 3.3121
 Frc consts  --     0.8736                 1.6136                 0.5191
 IR Inten    --     2.3124                 1.4317                 0.0179

                    34                     35                     36
                     A                      A                      A
 Frequencies --   531.4710               558.5518               570.1569
 Red. masses --    10.7496                 4.5710                 5.2294
 Frc consts  --     1.7890                 0.8402                 1.0016
 IR Inten    --     7.1431                 3.8593                13.3488

                    37                     38                     39
                     A                      A                      A
 Frequencies --   585.0939               605.2254               608.5516
 Red. masses --     7.1299                 8.0888                 2.3564
 Frc consts  --     1.4381                 1.7457                 0.5141
 IR Inten    --     2.0646                 4.6194                35.6300

                    40                     41                     42
                     A                      A                      A
 Frequencies --   616.8126               628.8998               636.4413
 Red. masses --     2.9566                 8.0714                 8.0249
 Frc consts  --     0.6628                 1.8809                 1.9152
 IR Inten    --     0.7193                 7.4199                 2.4130

                    43                     44                     45
                     A                      A                      A
 Frequencies --   639.8306               644.0657               659.2271
 Red. masses --     2.8200                 1.3357                 6.4005
 Frc consts  --     0.6802                 0.3265                 1.6388
 IR Inten    --     0.0164                 3.3847                 6.8996

                    46                     47                     48
                     A                      A                      A
 Frequencies --   665.2088               685.5161               691.9792
 Red. masses --     1.2819                 7.3311                 4.2459
 Frc consts  --     0.3342                 2.0298                 1.1978
 IR Inten    --     1.4007                12.1258                16.9001

                    49                     50                     51
                     A                      A                      A
 Frequencies --   710.6278               720.7749               740.9731
 Red. masses --     6.9633                 1.7178                 3.5429
 Frc consts  --     2.0718                 0.5258                 1.1461
 IR Inten    --    51.4433                 3.7033                 0.1429

                    52                     53                     54
                     A                      A                      A
 Frequencies --   744.9802               757.8871               767.8643
 Red. masses --     2.5239                 1.4484                 5.3318
 Frc consts  --     0.8253                 0.4902                 1.8522
 IR Inten    --    17.3135                32.3785                12.2585

                    55                     56                     57
                     A                      A                      A
 Frequencies --   787.4249               789.1443               797.4941
 Red. masses --     1.9977                 2.5933                 3.3607
 Frc consts  --     0.7298                 0.9515                 1.2593
 IR Inten    --    82.6289                33.4457                 5.1586

                    58                     59                     60
                     A                      A                      A
 Frequencies --   800.5923               822.1882               827.0697
 Red. masses --     2.3275                 1.9039                10.1781
 Frc consts  --     0.8789                 0.7583                 4.1020
 IR Inten    --     8.1968                38.1867                19.5887

                    61                     62                     63
                     A                      A                      A
 Frequencies --   827.5779               831.2249               837.7984
 Red. masses --     1.5213                10.4629                 4.6586
 Frc consts  --     0.6139                 4.2593                 1.9266
 IR Inten    --    45.4991                21.1335                14.4646

                    64                     65                     66
                     A                      A                      A
 Frequencies --   840.3196               861.1431               883.0108
 Red. masses --     8.4688                 8.2352                 6.1203
 Frc consts  --     3.5234                 3.5981                 2.8116
 IR Inten    --    16.8961                 6.3702                23.9757

                    67                     68                     69
                     A                      A                      A
 Frequencies --   887.4924               892.3409               906.6751
 Red. masses --     4.6310                 4.9100                 5.2688
 Frc consts  --     2.1491                 2.3035                 2.5519
 IR Inten    --     9.0888                40.8483                23.8943

                    70                     71                     72
                     A                      A                      A
 Frequencies --   922.7701               927.1015               936.5258
 Red. masses --     4.8683                 1.3972                 4.1510
 Frc consts  --     2.4424                 0.7076                 2.1451
 IR Inten    --     9.6702                 0.1329                30.6937

                    73                     74                     75
                     A                      A                      A
 Frequencies --   951.0169               963.7067               971.2448
 Red. masses --     1.0822                 1.5417                 1.3173
 Frc consts  --     0.5767                 0.8436                 0.7321
 IR Inten    --    58.5579                18.2951                 0.4693

                    76                     77                     78
                     A                      A                      A
 Frequencies --   987.6347               991.5682              1051.7353
 Red. masses --     1.3581                 4.8792                 3.4075
 Frc consts  --     0.7805                 2.8265                 2.2207
 IR Inten    --     0.1466                 1.6444                12.2787

                    79                     80                     81
                     A                      A                      A
 Frequencies --  1081.2932              1102.1206              1137.0467
 Red. masses --     2.0022                 3.2791                 3.7498
 Frc consts  --     1.3792                 2.3467                 2.8564
 IR Inten    --    22.0745                 7.3755                39.4529

                    82                     83                     84
                     A                      A                      A
 Frequencies --  1154.7538              1178.6255              1198.4875
 Red. masses --     1.7795                 1.4433                 1.7007
 Frc consts  --     1.3981                 1.1813                 1.4393
 IR Inten    --    33.5950                 5.5882                51.1538

                    85                     86                     87
                     A                      A                      A
 Frequencies --  1207.0949              1217.5861              1229.8209
 Red. masses --     1.7170                 1.4892                 2.6926
 Frc consts  --     1.4740                 1.3008                 2.3994
 IR Inten    --    18.2542                26.1067                23.0553

                    88                     89                     90
                     A                      A                      A
 Frequencies --  1240.8585              1251.6317              1286.7657
 Red. masses --     2.3142                 2.1847                 2.2855
 Frc consts  --     2.0994                 2.0165                 2.2296
 IR Inten    --     4.9725                56.8629                37.4378

                    91                     92                     93
                     A                      A                      A
 Frequencies --  1298.8414              1321.4217              1346.5745
 Red. masses --     4.6006                 3.1844                 3.1628
 Frc consts  --     4.5728                 3.2761                 3.3790
 IR Inten    --    15.1568                36.6377                 0.3694

                    94                     95                     96
                     A                      A                      A
 Frequencies --  1353.5701              1356.0068              1376.2092
 Red. masses --     4.1824                 3.1249                 5.8431
 Frc consts  --     4.5148                 3.3854                 6.5203
 IR Inten    --    58.9955                49.9564               119.6157

                    97                     98                     99
                     A                      A                      A
 Frequencies --  1383.4998              1394.7204              1407.1497
 Red. masses --     8.6887                 5.5599                 2.9415
 Frc consts  --     9.7986                 6.3722                 3.4316
 IR Inten    --     9.1556                12.2047                35.5748

                   100                    101                    102
                     A                      A                      A
 Frequencies --  1418.9446              1433.5604              1445.2786
 Red. masses --     7.4013                 3.1765                 4.2077
 Frc consts  --     8.7799                 3.8463                 5.1784
 IR Inten    --    29.3025                 1.5573                21.0439

                   103                    104                    105
                     A                      A                      A
 Frequencies --  1476.1269              1479.8549              1492.1886
 Red. masses --     6.4024                 4.8799                 7.4551
 Frc consts  --     8.2194                 6.2966                 9.7802
 IR Inten    --   205.1860                14.3068               259.6530

                   106                    107                    108
                     A                      A                      A
 Frequencies --  1510.1311              1541.4236              1546.1045
 Red. masses --     7.1346                 6.0527                 5.7436
 Frc consts  --     9.5862                 8.4732                 8.0893
 IR Inten    --    10.9347               358.7456                29.3699

                   109                    110                    111
                     A                      A                      A
 Frequencies --  1570.8711              1578.8238              1600.7249
 Red. masses --     7.3877                 5.5871                 7.1232
 Frc consts  --    10.7409                 8.2055                10.7537
 IR Inten    --    23.8887                 4.1029               101.8245

                   112                    113                    114
                     A                      A                      A
 Frequencies --  1606.9883              1613.9972              1648.0704
 Red. masses --     7.1834                 7.6729                 6.7493
 Frc consts  --    10.9296                11.7764                10.8010
 IR Inten    --    24.9552                70.1070                35.2625

                   115                    116                    117
                     A                      A                      A
 Frequencies --  2241.0534              2244.5988              3146.8595
 Red. masses --     1.0296                 1.0524                 1.0904
 Frc consts  --     3.0468                 3.1239                 6.3622
 IR Inten    --    65.5383                84.8051                22.6100

                   118                    119                    120
                     A                      A                      A
 Frequencies --  3188.2096              3189.7291              3199.0646
 Red. masses --     1.0898                 1.0884                 1.0915
 Frc consts  --     6.5266                 6.5244                 6.5816
 IR Inten    --    35.1381                 3.3366                 1.4437

                   121                    122                    123
                     A                      A                      A
 Frequencies --  3217.7852              3230.7185              3263.4578
 Red. masses --     1.0936                 1.0950                 1.0935
 Frc consts  --     6.6712                 6.7337                 6.8616
 IR Inten    --    24.8108                 3.8852                 0.4591

                   124                    125                    126
                     A                      A                      A
 Frequencies --  3276.2730              3284.3019              3328.3780
 Red. masses --     1.0927                 1.0931                 1.0931
 Frc consts  --     6.9105                 6.9470                 7.1344
 IR Inten    --     0.8808                 0.7431                13.8100

 - Thermochemistry -
 -------------------
 Temperature   298.150 Kelvin.  Pressure   1.00000 Atm.
 Atom     1 has atomic number 14 and mass  27.97693

 Molecular mass:   479.99934 amu.
 Principal axes and moments of inertia in atomic units:
                           1         2         3
     Eigenvalues --  8836.91029********************
           X            0.99999   0.00439  -0.00000
           Y           -0.00439   0.99999  -0.00000
           Z            0.00000   0.00000   1.00000
 This molecule is an asymmetric top.
 Rotational symmetry number  1.
 Warning -- assumption of classical behavior for rotation
           may cause significant error
 Rotational temperatures (Kelvin)      0.00980     0.00251     0.00200
 Rotational constants (GHZ):           0.20423     0.05231     0.04166
 Zero-point vibrational energy     778452.4 (Joules/Mol)
                                  186.05459 (Kcal/Mol)
 Warning -- explicit consideration of  40 degrees of freedom as
           vibrations may cause significant error
 Vibrational temperatures:     23.62    29.83    53.35    61.19    79.90
          (Kelvin)            128.05   148.84   163.51   185.14   193.32
                              224.97   270.75   292.97   305.72   309.83
                              358.23   363.97   394.61   422.63   423.47
                              491.42   512.73   539.50   566.80   597.26
                              636.51   656.84   659.93   669.16   676.05
                              719.36   737.48   742.06   764.67   803.63
                              820.33   841.82   870.78   875.57   887.45
                              904.85   915.70   920.57   926.67   948.48
                              957.09   986.30   995.60  1022.43  1037.03
                             1066.09  1071.86  1090.43  1104.78  1132.93
                             1135.40  1147.41  1151.87  1182.94  1189.97
                             1190.70  1195.95  1205.40  1209.03  1238.99
                             1270.45  1276.90  1283.88  1304.50  1327.66
                             1333.89  1347.45  1368.30  1386.56  1397.40
                             1420.98  1426.64  1513.21  1555.74  1585.70
                             1635.95  1661.43  1695.78  1724.35  1736.74
                             1751.83  1769.44  1785.32  1800.82  1851.37
                             1868.74  1901.23  1937.42  1947.48  1950.99
                             1980.06  1990.55  2006.69  2024.57  2041.54
                             2062.57  2079.43  2123.81  2129.18  2146.92
                             2172.74  2217.76  2224.50  2260.13  2271.57
                             2303.08  2312.09  2322.18  2371.20  3224.37
                             3229.47  4527.62  4587.12  4589.30  4602.73
                             4629.67  4648.28  4695.38  4713.82  4725.37
                             4788.79

 Zero-point correction=                           0.296497 (Hartree/Particle)
 Thermal correction to Energy=                    0.320548
 Thermal correction to Enthalpy=                  0.321492
 Thermal correction to Gibbs Free Energy=         0.240987
 Sum of electronic and zero-point Energies=          -2624.591882
 Sum of electronic and thermal Energies=             -2624.567830
 Sum of electronic and thermal Enthalpies=           -2624.566886
 Sum of electronic and thermal Free Energies=        -2624.647391

                     E (Thermal)             CV                S
                      KCal/Mol        Cal/Mol-Kelvin    Cal/Mol-Kelvin
 Total                  201.147             98.048            169.438
 Electronic               0.000              0.000              0.000
 Translational            0.889              2.981             44.394
 Rotational               0.889              2.981             37.821
 Vibrational            199.370             92.087             87.223
 Vibration     1          0.593              1.986              7.026
 Vibration     2          0.593              1.986              6.563
 Vibration     3          0.594              1.982              5.409
 Vibration     4          0.595              1.980              5.138
 Vibration     5          0.596              1.975              4.610
 Vibration     6          0.602              1.957              3.682
 Vibration     7          0.605              1.946              3.388
 Vibration     8          0.607              1.938              3.206
 Vibration     9          0.611              1.925              2.966
 Vibration    10          0.613              1.919              2.883
 Vibration    11          0.620              1.896              2.593
 Vibration    12          0.633              1.856              2.246
 Vibration    13          0.639              1.835              2.100
 Vibration    14          0.644              1.822              2.022
 Vibration    15          0.645              1.818              1.998
 Vibration    16          0.662              1.764              1.738
 Vibration    17          0.664              1.758              1.710
 Vibration    18          0.677              1.721              1.569
 Vibration    19          0.689              1.685              1.452
 Vibration    20          0.689              1.684              1.449
 Vibration    21          0.721              1.592              1.205
 Vibration    22          0.732              1.562              1.138
 Vibration    23          0.746              1.523              1.059
 Vibration    24          0.761              1.483              0.985
 Vibration    25          0.779              1.437              0.909
 Vibration    26          0.802              1.378              0.819
 Vibration    27          0.815              1.346              0.776
 Vibration    28          0.817              1.342              0.770
 Vibration    29          0.823              1.327              0.751
 Vibration    30          0.827              1.317              0.738
 Vibration    31          0.855              1.250              0.658
 Vibration    32          0.868              1.222              0.627
 Vibration    33          0.871              1.215              0.620
 Vibration    34          0.886              1.180              0.584
 Vibration    35          0.914              1.121              0.527
 Vibration    36          0.926              1.096              0.504
 Vibration    37          0.942              1.064              0.476
 Vibration    38          0.964              1.021              0.441
 Vibration    39          0.967              1.014              0.435
 Vibration    40          0.976              0.996              0.422

 Optimization completed.
    -- Stationary point found.
 Normal termination of Gaussian 09 at Sun Dec 29 17:16:28 2013.
