 Gaussian 09, Revision C.01,
 Gaussian 09:  EM64L-G09RevC.01 23-Sep-2011

 --------------------------------------------
 #B3LYP/6-31++G(d,p) opt scf=direct freq test
 --------------------------------------------

 Geom opt of No.4 candidate from the CEPDB database with SMILE code of
 c1c([Se]c2c1[nH]c1c2oc2ccc3nsnc3c12)-c1cncc2nsnc12, HPC, 20131227, Shu
 o Dai, Gaussian09
 ----------------------------------------------------------------------
 Charge =  0 Multiplicity = 1

 SCF Done:  E(RB3LYP) =  -4251.40208758     A.U. after   46 cycles
 SCF Done:  E(RB3LYP) =  -4251.54228797     A.U. after   37 cycles
 SCF Done:  E(RB3LYP) =  -4251.69314998     A.U. after   37 cycles
 SCF Done:  E(RB3LYP) =  -4251.72627082     A.U. after   37 cycles
 SCF Done:  E(RB3LYP) =  -4251.79493595     A.U. after   34 cycles
 SCF Done:  E(RB3LYP) =  -4251.82644004     A.U. after   27 cycles
 SCF Done:  E(RB3LYP) =  -4251.84346872     A.U. after   25 cycles
 SCF Done:  E(RB3LYP) =  -4251.84415247     A.U. after   25 cycles
 SCF Done:  E(RB3LYP) =  -4251.85663506     A.U. after   23 cycles
 SCF Done:  E(RB3LYP) =  -4251.85679014     A.U. after   24 cycles
 SCF Done:  E(RB3LYP) =  -4251.88004355     A.U. after   14 cycles
 SCF Done:  E(RB3LYP) =  -4251.88004855     A.U. after   15 cycles
 SCF Done:  E(RB3LYP) =  -4251.88005373     A.U. after   15 cycles
 SCF Done:  E(RB3LYP) =  -4251.88005764     A.U. after   14 cycles
 SCF Done:  E(RB3LYP) =  -4251.88006158     A.U. after   14 cycles
 SCF Done:  E(RB3LYP) =  -4251.88006461     A.U. after   15 cycles
 SCF Done:  E(RB3LYP) =  -4251.88006592     A.U. after   14 cycles
 SCF Done:  E(RB3LYP) =  -4251.88006624     A.U. after   13 cycles
 SCF Done:  E(RB3LYP) =  -4251.88006628     A.U. after   12 cycles
 Optimization completed.
    -- Stationary point found.
 Normal termination of Gaussian 09 at Sun Dec 29 15:37:19 2013.

 ----------------------------------------------------------------------
 #N Geom=AllCheck Guess=TCheck SCRF=Check Test GenChk RB3LYP/6-31++G(d,
 p) Freq
 ----------------------------------------------------------------------

 Geom opt of No.4 candidate from the CEPDB database with SMILE code of
 c1c([Se]c2c1[nH]c1c2oc2ccc3nsnc3c12)-c1cncc2nsnc12, HPC, 20131227, Shu
 o Dai, Gaussian09
 ----------------------------------------------------------------------
 Charge =  0 Multiplicity = 1

                         Standard orientation:
 ---------------------------------------------------------------------
 Center     Atomic      Atomic             Coordinates (Angstroms)
 Number     Number       Type             X           Y           Z
 ---------------------------------------------------------------------
      1          6           0       -2.568309   -2.458146    0.751227
      2          6           0       -2.895111   -1.054222    0.885844
      3         34           0       -1.499828   -1.809881   -0.854071
      4          6           0        0.178129   -1.785427   -0.103033
      5          6           0        0.629131   -2.775448    0.852898
      6          7           0        1.941348   -2.437355    1.076086
      7          1           0        2.526467   -2.940327    1.726988
      8          6           0        2.342562   -1.307320    0.366201
      9          6           0        1.239772   -0.887941   -0.360565
     10          8           0        1.520157    0.222193   -1.108922
     11          6           0        2.835453    0.521413   -0.843226
     12          6           0        3.496942    1.629478   -1.456637
     13          6           0        4.825019    1.891622   -1.175220
     14          6           0        5.424028    0.988430   -0.261567
     15          7           0        6.587115    0.748728    0.350012
     16         16           0        8.083407    1.297415    0.478345
     17          7           0        5.745815   -0.624969    1.101766
     18          6           0        4.769113   -0.146684    0.374677
     19          6           0        3.390369   -0.403726    0.068032
     20          6           0       -4.119324   -0.429278    0.464521
     21          6           0       -5.270022   -1.110395    0.062776
     22          7           0       -6.442440   -0.534306   -0.324683
     23          6           0       -6.557959    0.777495   -0.332393
     24          6           0       -5.469437    1.615991    0.054870
     25          7           0       -5.450979    2.955824    0.090762
     26         16           0       -3.945041    3.377831    0.588389
     27          7           0       -3.271348    1.885279    0.767529
     28          6           0       -4.224211    1.006147    0.448805
     29          1           0       -3.330742   -3.157503    0.420482
     30          1           0       -1.823710   -2.891820    1.418116
     31          1           0       -2.176354   -0.428965    1.405721
     32          1           0        2.933502    2.252561   -2.142750
     33          1           0        5.358113    2.721573   -1.622268
     34          1           0       -5.286294   -2.196183    0.064103
     35          1           0       -7.505373    1.210808   -0.641882
 ---------------------------------------------------------------------

 SCF Done:  E(RB3LYP) =  -4251.88006628     A.U. after    2 cycles

 The electronic state is 1-A.
 Alpha  occ. eigenvalues -- -453.95281 -89.01521 -88.90117 -57.55060 -52.22288
 Alpha  occ. eigenvalues --  -52.22104 -52.21964 -19.25047 -14.44991 -14.41441
 Alpha  occ. eigenvalues --  -14.41110 -14.39693 -14.38167 -14.37311 -10.28657
 Alpha  occ. eigenvalues --  -10.28124 -10.28069 -10.27613 -10.27491 -10.27305
 Alpha  occ. eigenvalues --  -10.27140 -10.26130 -10.26129 -10.26107 -10.25903
 Alpha  occ. eigenvalues --  -10.24345 -10.23584 -10.23458 -10.23020 -10.22799
 Alpha  occ. eigenvalues --  -10.20147  -8.06821  -7.95822  -7.79062  -6.03374
 Alpha  occ. eigenvalues --   -6.02788  -6.02588  -5.92497  -5.91783  -5.91373
 Alpha  occ. eigenvalues --   -5.83292  -5.82664  -5.82274  -2.18808  -2.18709
 Alpha  occ. eigenvalues --   -2.18352  -2.17848  -2.17833  -1.14013  -1.06075
 Alpha  occ. eigenvalues --   -1.02495  -0.98614  -0.98398  -0.93445  -0.89043
 Alpha  occ. eigenvalues --   -0.88789  -0.85957  -0.83915  -0.81841  -0.81421
 Alpha  occ. eigenvalues --   -0.79516  -0.75918  -0.73383  -0.71509  -0.70020
 Alpha  occ. eigenvalues --   -0.68964  -0.68067  -0.65816  -0.63383  -0.61644
 Alpha  occ. eigenvalues --   -0.61060  -0.58055  -0.56865  -0.56529  -0.55240
 Alpha  occ. eigenvalues --   -0.52920  -0.52450  -0.51835  -0.50870  -0.50426
 Alpha  occ. eigenvalues --   -0.49464  -0.49319  -0.48309  -0.47570  -0.46408
 Alpha  occ. eigenvalues --   -0.45465  -0.44851  -0.44314  -0.43870  -0.43565
 Alpha  occ. eigenvalues --   -0.42286  -0.41834  -0.41548  -0.40733  -0.39626
 Alpha  occ. eigenvalues --   -0.39271  -0.37604  -0.36984  -0.36493  -0.35856
 Alpha  occ. eigenvalues --   -0.34149  -0.33073  -0.32662  -0.31682  -0.31531
 Alpha  occ. eigenvalues --   -0.30110  -0.29952  -0.27765  -0.25462  -0.23797
 Alpha  occ. eigenvalues --   -0.22814  -0.22034  -0.19141
 Alpha virt. eigenvalues --   -0.14579  -0.12912  -0.10767  -0.06115  -0.05634
 Alpha virt. eigenvalues --   -0.04499  -0.03328  -0.02128  -0.01871  -0.01472
 Alpha virt. eigenvalues --   -0.00578  -0.00339   0.00055   0.00310   0.00493

 Mulliken atomic charges:
              1
     1  C   -0.670002
     2  C   -0.264580
     3  Se   0.308115
     4  C   -0.028939
     5  C   -0.754634
     6  N   -0.501473
     7  H    0.322612
     8  C    0.915741
     9  C    0.792134
    10  O   -0.343787
    11  C   -1.122683
    12  C   -0.386085
    13  C    0.185889
    14  C   -0.099675
    15  N   -0.253096
    16  S    0.077700
    17  N   -0.331393
    18  C    0.359527
    19  C    0.251835
    20  C   -0.108349
    21  C   -0.316326
    22  N   -0.065964
    23  C   -0.207543
    24  C    0.314115
    25  N   -0.412180
    26  S    0.886124
    27  N   -0.385615
    28  C    0.441481
    29  H    0.185900
    30  H    0.242807
    31  H    0.300736
    32  H    0.149640
    33  H    0.146824
    34  H    0.182956
    35  H    0.188189
 Sum of Mulliken atomic charges =  -0.00000

 Dipole moment (field-independent basis, Debye):
    X=             -7.1640    Y=              1.9757    Z=             -1.6181  Tot=              7.6056
 Quadrupole moment (field-independent basis, Debye-Ang):
   XX=           -220.6609   YY=           -177.4412   ZZ=           -179.9002
   XY=              6.8689   XZ=            -14.3838   YZ=             -1.5808

  Exact polarizability:1142.018  32.600 354.980  19.547 -24.598 203.362
 Approx polarizability:2331.964 103.091 703.786  53.498 -56.731 390.868

                     1                      2                      3
                     A                      A                      A
 Frequencies --    12.0660                20.7980                24.0756
 Red. masses --    13.9117                 9.0295                 9.5133
 Frc consts  --     0.0012                 0.0023                 0.0032
 IR Inten    --     0.3288                 1.9967                 1.9550

                     4                      5                      6
                     A                      A                      A
 Frequencies --    32.0632                52.7954                78.0951
 Red. masses --    11.0580                14.9231                10.3866
 Frc consts  --     0.0067                 0.0245                 0.0373
 IR Inten    --     6.8011                 1.7799                 2.7512

                     7                      8                      9
                     A                      A                      A
 Frequencies --    96.6434               107.6243               124.2597
 Red. masses --    12.2322                 9.2644                10.4731
 Frc consts  --     0.0673                 0.0632                 0.0953
 IR Inten    --     2.4463                35.2895                 1.2233

                    10                     11                     12
                     A                      A                      A
 Frequencies --   126.1720               133.2795               182.8173
 Red. masses --     7.7185                11.5910                 7.4916
 Frc consts  --     0.0724                 0.1213                 0.1475
 IR Inten    --     0.8024                 2.4669                26.9419

                    13                     14                     15
                     A                      A                      A
 Frequencies --   201.6362               209.5368               237.0255
 Red. masses --    13.4716                 4.6565                 8.0989
 Frc consts  --     0.3227                 0.1205                 0.2681
 IR Inten    --    13.1197                21.3140                 1.9880

                    16                     17                     18
                     A                      A                      A
 Frequencies --   240.6095               248.9698               300.9016
 Red. masses --     5.4867                 7.1427                 9.4642
 Frc consts  --     0.1871                 0.2609                 0.5049
 IR Inten    --    13.8092                 8.0830                12.7710

                    19                     20                     21
                     A                      A                      A
 Frequencies --   302.0744               329.8363               358.8650
 Red. masses --     9.1787                 5.8474                 4.0132
 Frc consts  --     0.4935                 0.3748                 0.3045
 IR Inten    --     7.2653                81.0257                 2.7814

                    22                     23                     24
                     A                      A                      A
 Frequencies --   366.5624               383.6864               438.2371
 Red. masses --     9.4428                 8.6961                 9.8691
 Frc consts  --     0.7476                 0.7543                 1.1167
 IR Inten    --    25.3002                 1.2068                 4.7116

                    25                     26                     27
                     A                      A                      A
 Frequencies --   451.4425               460.2246               480.1438
 Red. masses --     7.3933                 7.4271                 8.2218
 Frc consts  --     0.8878                 0.9268                 1.1168
 IR Inten    --    14.7441                 0.0203                 8.0477

                    28                     29                     30
                     A                      A                      A
 Frequencies --   483.9219               494.9772               519.9312
 Red. masses --     7.6561                 8.6539                 8.0070
 Frc consts  --     1.0563                 1.2492                 1.2753
 IR Inten    --     1.4801                 8.4219                40.0444

                    31                     32                     33
                     A                      A                      A
 Frequencies --   545.0597               554.7360               580.8057
 Red. masses --     3.6592                 5.4432                 4.6973
 Frc consts  --     0.6405                 0.9869                 0.9336
 IR Inten    --    13.2919                 1.8615                 1.8403

                    34                     35                     36
                     A                      A                      A
 Frequencies --   582.3540               592.5548               596.0290
 Red. masses --     7.2475                 5.3487                 7.1419
 Frc consts  --     1.4481                 1.1065                 1.4949
 IR Inten    --     1.4368                20.8718                38.1137

                    37                     38                     39
                     A                      A                      A
 Frequencies --   616.7874               639.9211               642.2127
 Red. masses --     7.5784                 4.0597                 3.6752
 Frc consts  --     1.6986                 0.9795                 0.8931
 IR Inten    --     4.7690                 7.7086                 6.2935

                    40                     41                     42
                     A                      A                      A
 Frequencies --   683.1976               690.3981               717.0262
 Red. masses --     7.9046                 1.6004                 9.8825
 Frc consts  --     2.1738                 0.4495                 2.9936
 IR Inten    --     8.3554                68.6540                70.5045

                    43                     44                     45
                     A                      A                      A
 Frequencies --   724.8123               752.5885               769.4458
 Red. masses --     6.1202                 5.0589                 7.2956
 Frc consts  --     1.8944                 1.6882                 2.5449
 IR Inten    --     7.8080                 5.3237                 7.9804

                    46                     47                     48
                     A                      A                      A
 Frequencies --   770.7221               786.9115               790.1590
 Red. masses --     2.0504                 7.2108                 5.5754
 Frc consts  --     0.7176                 2.6308                 2.0510
 IR Inten    --    25.5830                73.8401                35.5121

                    49                     50                     51
                     A                      A                      A
 Frequencies --   809.2574               821.6162               836.8379
 Red. masses --     8.5597                11.4094                14.0089
 Frc consts  --     3.3028                 4.5379                 5.7801
 IR Inten    --    70.2865                 9.4657                70.0680

                    52                     53                     54
                     A                      A                      A
 Frequencies --   883.4359               898.0242               903.9796
 Red. masses --     1.3147                 1.8292                 2.8743
 Frc consts  --     0.6045                 0.8692                 1.3839
 IR Inten    --   125.3254                23.0637                24.9535

                    55                     56                     57
                     A                      A                      A
 Frequencies --   934.8693               941.4963               943.5613
 Red. masses --     1.3451                 1.3335                 1.5192
 Frc consts  --     0.6926                 0.6964                 0.7969
 IR Inten    --     6.4474                 0.0510                 0.1757

                    58                     59                     60
                     A                      A                      A
 Frequencies --   949.2004              1023.5669              1030.9199
 Red. masses --     8.5648                 2.3519                 4.7096
 Frc consts  --     4.5466                 1.4518                 2.9491
 IR Inten    --   227.7798                96.7268                11.6898

                    61                     62                     63
                     A                      A                      A
 Frequencies --  1060.4828              1083.1970              1101.7794
 Red. masses --     4.4340                 2.1782                 2.6558
 Frc consts  --     2.9380                 1.5058                 1.8995
 IR Inten    --    21.2005                29.7947               179.5556

                    64                     65                     66
                     A                      A                      A
 Frequencies --  1109.7595              1137.3350              1152.2649
 Red. masses --     1.5737                 1.4863                 5.5119
 Frc consts  --     1.1419                 1.1327                 4.3118
 IR Inten    --    57.1785                 6.8524                10.7216

                    67                     68                     69
                     A                      A                      A
 Frequencies --  1176.8241              1194.0591              1210.6593
 Red. masses --     2.3045                 5.5113                 2.5137
 Frc consts  --     1.8804                 4.6297                 2.1707
 IR Inten    --     6.8249               437.1775                18.4891

                    70                     71                     72
                     A                      A                      A
 Frequencies --  1217.8946              1304.0529              1317.6606
 Red. masses --     3.8635                 1.9739                 3.0532
 Frc consts  --     3.3763                 1.9777                 3.1233
 IR Inten    --    32.0382                39.1269                21.3047

                    73                     74                     75
                     A                      A                      A
 Frequencies --  1319.5548              1347.3002              1357.4590
 Red. masses --     5.5467                 3.2461                 4.2701
 Frc consts  --     5.6903                 3.4717                 4.6360
 IR Inten    --     8.0822                27.0839               407.0490

                    76                     77                     78
                     A                      A                      A
 Frequencies --  1370.8234              1391.6870              1411.4465
 Red. masses --     3.9627                 2.3135                 2.2584
 Frc consts  --     4.3874                 2.6400                 2.6508
 IR Inten    --   128.0128                 7.6910                 2.7261

                    79                     80                     81
                     A                      A                      A
 Frequencies --  1433.1206              1438.7483              1461.1146
 Red. masses --     2.8133                 7.6563                 1.8796
 Frc consts  --     3.4043                 9.3377                 2.3642
 IR Inten    --    43.9520                47.8194                40.6843

                    82                     83                     84
                     A                      A                      A
 Frequencies --  1474.3964              1501.0579              1513.5653
 Red. masses --     9.5457                 3.0107                 2.3605
 Frc consts  --    12.2260                 3.9968                 3.1860
 IR Inten    --    89.5120                20.7777                39.4321

                    85                     86                     87
                     A                      A                      A
 Frequencies --  1521.3788              1530.6566              1540.4143
 Red. masses --     6.6165                 5.2859                 3.5537
 Frc consts  --     9.0230                 7.2966                 4.9683
 IR Inten    --   491.2701                79.3415               132.3022

                    88                     89                     90
                     A                      A                      A
 Frequencies --  1551.1166              1582.2456              1601.9817
 Red. masses --     7.0108                 8.4120                 5.9539
 Frc consts  --     9.9381                12.4078                 9.0025
 IR Inten    --    10.1415               241.3490                14.7715

                    91                     92                     93
                     A                      A                      A
 Frequencies --  1622.0934              3124.0963              3193.5160
 Red. masses --    11.1272                 1.0614                 1.0892
 Frc consts  --    17.2499                 6.1035                 6.5445
 IR Inten    --   104.4804                 5.5559                 4.7955

                    94                     95                     96
                     A                      A                      A
 Frequencies --  3197.2057              3213.3146              3216.4707
 Red. masses --     1.0932                 1.0932                 1.0889
 Frc consts  --     6.5842                 6.6505                 6.6373
 IR Inten    --     6.8830                14.3620                19.0460

                    97                     98                     99
                     A                      A                      A
 Frequencies --  3228.2277              3238.1737              3652.0911
 Red. masses --     1.1071                 1.0954                 1.0798
 Frc consts  --     6.7975                 6.7672                 8.4858
 IR Inten    --     5.0240                 5.4570                78.3106

 - Thermochemistry -
 -------------------
 Temperature   298.150 Kelvin.  Pressure   1.00000 Atm.
 Atom     1 has atomic number  6 and mass  12.00000

 Molecular mass:   455.93662 amu.
 Principal axes and moments of inertia in atomic units:
                           1         2         3
     Eigenvalues --  5889.35591********************
           X            0.99999  -0.00003  -0.00345
           Y           -0.00008   0.99944  -0.03355
           Z            0.00345   0.03355   0.99943
 This molecule is an asymmetric top.
 Rotational symmetry number  1.
 Warning -- assumption of classical behavior for rotation
           may cause significant error
 Rotational temperatures (Kelvin)      0.01471     0.00281     0.00247
 Rotational constants (GHZ):           0.30644     0.05846     0.05152
 Zero-point vibrational energy     589824.7 (Joules/Mol)
                                  140.97148 (Kcal/Mol)
 Warning -- explicit consideration of  37 degrees of freedom as
           vibrations may cause significant error
 Vibrational temperatures:     17.36    29.92    34.64    46.13    75.96
          (Kelvin)            112.36   139.05   154.85   178.78   181.53
                              191.76   263.03   290.11   301.48   341.03
                              346.18   358.21   432.93   434.62   474.56
                              516.33   527.40   552.04   630.52   649.52
                              662.16   690.82   696.25   712.16   748.06
                              784.22   798.14   835.65   837.88   852.55
                              857.55   887.42   920.70   924.00   982.97
                              993.33  1031.64  1042.84  1082.81  1107.06
                             1108.90  1132.19  1136.86  1164.34  1182.12
                             1204.02  1271.07  1292.05  1300.62  1345.07
                             1354.60  1357.57  1365.69  1472.68  1483.26
                             1525.80  1558.48  1585.21  1596.69  1636.37
                             1657.85  1693.19  1717.98  1741.87  1752.28
                             1876.24  1895.82  1898.54  1938.46  1953.08
                             1972.31  2002.32  2030.75  2061.94  2070.04
                             2102.22  2121.32  2159.68  2177.68  2188.92
                             2202.27  2216.31  2231.71  2276.50  2304.89
                             2333.83  4494.87  4594.75  4600.06  4623.24
                             4627.78  4644.69  4659.00  5254.54

 Zero-point correction=                           0.224652 (Hartree/Particle)
 Thermal correction to Energy=                    0.246640
 Thermal correction to Enthalpy=                  0.247584
 Thermal correction to Gibbs Free Energy=         0.169116
 Sum of electronic and zero-point Energies=          -4251.655414
 Sum of electronic and thermal Energies=             -4251.633426
 Sum of electronic and thermal Enthalpies=           -4251.632482
 Sum of electronic and thermal Free Energies=        -4251.710951

                     E (Thermal)             CV                S
                      KCal/Mol        Cal/Mol-Kelvin    Cal/Mol-Kelvin
 Total                  154.769             83.451            165.151
 Electronic               0.000              0.000              0.000
 Translational            0.889              2.981             44.240
 Rotational               0.889              2.981             37.097
 Vibrational            152.992             77.489             83.813
 Vibration     1          0.593              1.987              7.638
 Vibration     2          0.593              1.986              6.557
 Vibration     3          0.593              1.985              6.266
 Vibration     4          0.594              1.983              5.698
 Vibration     5          0.596              1.976              4.710
 Vibration     6          0.599              1.964              3.938
 Vibration     7          0.603              1.952              3.521
 Vibration     8          0.606              1.943              3.311
 Vibration     9          0.610              1.929              3.033
 Vibration    10          0.611              1.927              3.004
 Vibration    11          0.613              1.920              2.898
 Vibration    12          0.630              1.863              2.299
 Vibration    13          0.639              1.838              2.118
 Vibration    14          0.642              1.826              2.048
 Vibration    15          0.656              1.784              1.825
 Vibration    16          0.658              1.778              1.798
 Vibration    17          0.662              1.764              1.738
 Vibration    18          0.693              1.672              1.412
 Vibration    19          0.694              1.670              1.405
 Vibration    20          0.713              1.616              1.261
 Vibration    21          0.734              1.557              1.127
 Vibration    22          0.739              1.541              1.094
 Vibration    23          0.753              1.505              1.025
 Vibration    24          0.798              1.387              0.832
 Vibration    25          0.810              1.358              0.791
 Vibration    26          0.818              1.338              0.765
 Vibration    27          0.837              1.294              0.710
 Vibration    28          0.840              1.286              0.700
 Vibration    29          0.851              1.261              0.671
 Vibration    30          0.875              1.206              0.610
 Vibration    31          0.900              1.151              0.555
 Vibration    32          0.910              1.129              0.534
 Vibration    33          0.938              1.073              0.484
 Vibration    34          0.939              1.069              0.481
 Vibration    35          0.950              1.048              0.463
 Vibration    36          0.954              1.040              0.457
 Vibration    37          0.976              0.996              0.422

 Optimization completed.
    -- Stationary point found.
 Normal termination of Gaussian 09 at Sun Dec 29 16:52:04 2013.
