 Gaussian 09, Revision C.01,
 Gaussian 09:  EM64L-G09RevC.01 23-Sep-2011

 --------------------------------------------
 #B3LYP/6-31++G(d,p) opt scf=direct freq test
 --------------------------------------------

 Geom opt of No.56 candidate from the CEPDB database with SMILE code of
  c1scc2c(cccc12)-c1sc(-c2nccc3nsnc23)c2nccnc12, HPC, 20131227, Shuo Da
 i, Gaussian09
 ----------------------------------------------------------------------
 Charge =  0 Multiplicity = 1

 SCF Done:  E(RB3LYP) =  -2197.70072394     A.U. after   23 cycles
 SCF Done:  E(RB3LYP) =  -2197.72871233     A.U. after   19 cycles
 SCF Done:  E(RB3LYP) =  -2197.74409754     A.U. after   17 cycles
 SCF Done:  E(RB3LYP) =  -2197.74282092     A.U. after   17 cycles
 SCF Done:  E(RB3LYP) =  -2197.74796196     A.U. after   15 cycles
 SCF Done:  E(RB3LYP) =  -2197.75045435     A.U. after   17 cycles
 SCF Done:  E(RB3LYP) =  -2197.75276576     A.U. after   18 cycles
 SCF Done:  E(RB3LYP) =  -2197.75407679     A.U. after   14 cycles
 SCF Done:  E(RB3LYP) =  -2197.75538229     A.U. after   15 cycles
 SCF Done:  E(RB3LYP) =  -2197.75604160     A.U. after   18 cycles
 SCF Done:  E(RB3LYP) =  -2197.75842108     A.U. after   18 cycles
 SCF Done:  E(RB3LYP) =  -2197.75873828     A.U. after   15 cycles
 SCF Done:  E(RB3LYP) =  -2197.75905338     A.U. after   15 cycles
 SCF Done:  E(RB3LYP) =  -2197.75922573     A.U. after   15 cycles
 SCF Done:  E(RB3LYP) =  -2197.75935344     A.U. after   15 cycles
 SCF Done:  E(RB3LYP) =  -2197.75939960     A.U. after   14 cycles
 SCF Done:  E(RB3LYP) =  -2197.75941003     A.U. after   13 cycles
 SCF Done:  E(RB3LYP) =  -2197.75941177     A.U. after   12 cycles
 SCF Done:  E(RB3LYP) =  -2197.75941197     A.U. after   11 cycles
 Optimization completed.
    -- Stationary point found.
 Normal termination of Gaussian 09 at Sun Dec 29 13:49:08 2013.

 ----------------------------------------------------------------------
 #N Geom=AllCheck Guess=TCheck SCRF=Check Test GenChk RB3LYP/6-31++G(d,
 p) Freq
 ----------------------------------------------------------------------

 Geom opt of No.56 candidate from the CEPDB database with SMILE code of
  c1scc2c(cccc12)-c1sc(-c2nccc3nsnc23)c2nccnc12, HPC, 20131227, Shuo Da
 i, Gaussian09
 ----------------------------------------------------------------------
 Charge =  0 Multiplicity = 1

                         Standard orientation:
 ---------------------------------------------------------------------
 Center     Atomic      Atomic             Coordinates (Angstroms)
 Number     Number       Type             X           Y           Z
 ---------------------------------------------------------------------
      1          6           0        5.898984   -0.355639    1.021495
      2         16           0        5.045723   -1.771087    1.482536
      3          6           0        3.551857   -1.187458    0.872236
      4          6           0        3.687767    0.072404    0.311076
      5          6           0        2.676361    0.916684   -0.287140
      6          6           0        3.058579    2.169532   -0.731141
      7          6           0        4.403044    2.638720   -0.634990
      8          6           0        5.387914    1.860785   -0.084781
      9          6           0        5.056448    0.560730    0.407089
     10          6           0        1.271695    0.501318   -0.385631
     11         16           0        0.020343    1.586787    0.110145
     12          6           0       -1.276074    0.511095   -0.298590
     13          6           0       -2.649632    0.953468   -0.097068
     14          7           0       -2.905954    2.244096   -0.257356
     15          6           0       -4.174154    2.726328   -0.093867
     16          6           0       -5.275252    1.969705    0.228034
     17          6           0       -5.047116    0.588150    0.464496
     18          7           0       -5.941917   -0.323763    0.872561
     19         16           0       -5.100304   -1.722235    1.084328
     20          7           0       -3.596191   -1.227841    0.662152
     21          6           0       -3.706118    0.060271    0.321995
     22          6           0       -0.752541   -0.666166   -0.846956
     23          7           0       -1.483347   -1.680084   -1.400678
     24          6           0       -0.784338   -2.662854   -1.914661
     25          6           0        0.651449   -2.693175   -1.914654
     26          7           0        1.386876   -1.724339   -1.423963
     27          6           0        0.695194   -0.676961   -0.882784
     28          1           0        6.955769   -0.256845    1.226406
     29          1           0        2.669019   -1.804982    0.924200
     30          1           0        2.318016    2.812709   -1.197017
     31          1           0        4.637745    3.628123   -1.015639
     32          1           0        6.410807    2.218723   -0.014561
     33          1           0       -4.273900    3.796458   -0.253633
     34          1           0       -6.264673    2.400829    0.326047
     35          1           0       -1.335813   -3.483714   -2.370395
     36          1           0        1.170184   -3.544849   -2.351503
 ---------------------------------------------------------------------

 SCF Done:  E(RB3LYP) =  -2197.75941197     A.U. after    2 cycles

 The electronic state is 1-A.
 Alpha  occ. eigenvalues --  -88.99066 -88.94406 -88.93173 -14.39009 -14.38465
 Alpha  occ. eigenvalues --  -14.36565 -14.36422 -14.35508 -10.27146 -10.26093
 Alpha  occ. eigenvalues --  -10.26044 -10.25019 -10.24940 -10.24921 -10.24862
 Alpha  occ. eigenvalues --  -10.24720 -10.24297 -10.24293 -10.22717 -10.22427
 Alpha  occ. eigenvalues --  -10.22245 -10.21825 -10.21494 -10.21365 -10.20839
 Alpha  occ. eigenvalues --  -10.20815 -10.20456  -8.04383  -8.00154  -7.99067
 Alpha  occ. eigenvalues --   -6.00933  -6.00350  -6.00153  -5.96554  -5.96169
 Alpha  occ. eigenvalues --   -5.95958  -5.95449  -5.95071  -5.94880  -1.03584
 Alpha  occ. eigenvalues --   -0.99660  -0.96350  -0.92786  -0.90904  -0.90644
 Alpha  occ. eigenvalues --   -0.89567  -0.84564  -0.81442  -0.80439  -0.78487
 Alpha  occ. eigenvalues --   -0.77034  -0.74653  -0.74052  -0.71264  -0.68380
 Alpha  occ. eigenvalues --   -0.67896  -0.64944  -0.64224  -0.63889  -0.60757
 Alpha  occ. eigenvalues --   -0.59322  -0.58574  -0.56661  -0.54580  -0.53712
 Alpha  occ. eigenvalues --   -0.52623  -0.52295  -0.49953  -0.49574  -0.48012
 Alpha  occ. eigenvalues --   -0.47641  -0.47532  -0.46779  -0.45474  -0.45039
 Alpha  occ. eigenvalues --   -0.43827  -0.42923  -0.42435  -0.41853  -0.41664
 Alpha  occ. eigenvalues --   -0.40846  -0.39875  -0.39582  -0.37966  -0.37422
 Alpha  occ. eigenvalues --   -0.36553  -0.36418  -0.35692  -0.35312  -0.34735
 Alpha  occ. eigenvalues --   -0.34529  -0.34127  -0.32718  -0.31374  -0.29761
 Alpha  occ. eigenvalues --   -0.29447  -0.28321  -0.27315  -0.27139  -0.26061
 Alpha  occ. eigenvalues --   -0.25722  -0.23071  -0.20581
 Alpha virt. eigenvalues --   -0.11477  -0.09526  -0.07033  -0.03455  -0.01853
 Alpha virt. eigenvalues --   -0.01452  -0.01179  -0.00697  -0.00448  -0.00118
 Alpha virt. eigenvalues --    0.00260   0.00472   0.00974   0.01318   0.01413

 Mulliken atomic charges:
              1
     1  C    0.547024
     2  S    0.060609
     3  C   -0.042753
     4  C   -0.054840
     5  C   -0.035822
     6  C    0.038207
     7  C   -0.218414
     8  C   -0.465545
     9  C   -0.060016
    10  C   -1.120639
    11  S    0.363337
    12  C   -0.532283
    13  C   -1.052393
    14  N   -0.105069
    15  C    0.115313
    16  C   -0.140117
    17  C   -0.509446
    18  N   -0.384246
    19  S    0.899075
    20  N   -0.428355
    21  C    1.332976
    22  C    0.473212
    23  N   -0.077562
    24  C    0.187991
    25  C    0.160563
    26  N   -0.090896
    27  C   -0.187806
    28  H    0.188730
    29  H    0.160780
    30  H    0.127584
    31  H    0.116739
    32  H    0.082197
    33  H    0.159891
    34  H    0.183935
    35  H    0.152538
    36  H    0.155501
 Sum of Mulliken atomic charges =  -0.00000

 Dipole moment (field-independent basis, Debye):
    X=              1.1199    Y=             -0.3663    Z=             -0.0789  Tot=              1.1809
 Quadrupole moment (field-independent basis, Debye-Ang):
   XX=           -164.9260   YY=           -159.5960   ZZ=           -176.0084
   XY=              1.7658   XZ=              2.0555   YZ=              0.8469

  Exact polarizability: 559.331  -0.292 357.640  -6.246  -7.054 198.300
 Approx polarizability: 860.931   4.946 715.936 -18.342 -22.976 339.065

                     1                      2                      3
                     A                      A                      A
 Frequencies --    20.3384                26.5167                41.2754
 Red. masses --    11.5800                 8.0841                 6.6711
 Frc consts  --     0.0028                 0.0033                 0.0067
 IR Inten    --     0.1227                 0.0728                 0.3370

                     4                      5                      6
                     A                      A                      A
 Frequencies --    57.8528                71.2448                73.7377
 Red. masses --     8.6040                 8.9284                 6.9043
 Frc consts  --     0.0170                 0.0267                 0.0221
 IR Inten    --     0.5020                 0.1069                 0.0212

                     7                      8                      9
                     A                      A                      A
 Frequencies --   143.1449               155.2564               157.0831
 Red. masses --     9.2434                 8.5319                 6.4960
 Frc consts  --     0.1116                 0.1212                 0.0944
 IR Inten    --     0.1049                 0.9138                 0.9014

                    10                     11                     12
                     A                      A                      A
 Frequencies --   171.3708               188.9116               198.0929
 Red. masses --     6.7681                 7.2388                 6.3337
 Frc consts  --     0.1171                 0.1522                 0.1464
 IR Inten    --     2.9565                 3.7796                 0.5845

                    13                     14                     15
                     A                      A                      A
 Frequencies --   212.5640               255.1885               260.7529
 Red. masses --    10.4573                 6.6193                 5.3360
 Frc consts  --     0.2784                 0.2540                 0.2138
 IR Inten    --     1.8539                 0.1595                 0.4299

                    16                     17                     18
                     A                      A                      A
 Frequencies --   283.9906               304.6498               353.2174
 Red. masses --     5.4454                 9.3904                 6.6090
 Frc consts  --     0.2588                 0.5135                 0.4858
 IR Inten    --     7.2935                 0.5435                16.2118

                    19                     20                     21
                     A                      A                      A
 Frequencies --   414.1988               436.6074               454.1813
 Red. masses --     6.7356                 6.9329                 8.1214
 Frc consts  --     0.6808                 0.7787                 0.9871
 IR Inten    --     2.1543                 0.1590                 7.3033

                    22                     23                     24
                     A                      A                      A
 Frequencies --   455.9200               467.9518               485.4335
 Red. masses --     6.8154                 8.8332                12.2159
 Frc consts  --     0.8347                 1.1396                 1.6960
 IR Inten    --     1.8415                17.3628                 0.0363

                    25                     26                     27
                     A                      A                      A
 Frequencies --   500.3954               502.0442               525.9092
 Red. masses --     8.4832                 8.7115                10.2031
 Frc consts  --     1.2515                 1.2937                 1.6627
 IR Inten    --    15.5298                 4.8438                 3.4784

                    28                     29                     30
                     A                      A                      A
 Frequencies --   542.7504               561.1567               567.7066
 Red. masses --     3.3642                 6.3601                 5.1781
 Frc consts  --     0.5839                 1.1800                 0.9833
 IR Inten    --     3.9150                 2.2144                10.4747

                    31                     32                     33
                     A                      A                      A
 Frequencies --   580.2768               588.5891               606.5885
 Red. masses --     4.9017                 6.2511                 7.9991
 Frc consts  --     0.9725                 1.2759                 1.7341
 IR Inten    --     4.2220                 2.9691                 2.5370

                    34                     35                     36
                     A                      A                      A
 Frequencies --   627.0936               636.7663               640.7298
 Red. masses --     4.1400                 6.4745                 1.4446
 Frc consts  --     0.9592                 1.5467                 0.3494
 IR Inten    --    10.6781                 4.0295                 4.7626

                    37                     38                     39
                     A                      A                      A
 Frequencies --   658.8905               669.3160               705.1680
 Red. masses --     8.2931                 7.4164                 9.4201
 Frc consts  --     2.1213                 1.9575                 2.7599
 IR Inten    --     5.7262                 5.5873                 3.1841

                    40                     41                     42
                     A                      A                      A
 Frequencies --   734.9932               757.4281               781.9335
 Red. masses --     1.3005                 8.3577                 1.8159
 Frc consts  --     0.4139                 2.8250                 0.6542
 IR Inten    --     1.6338                19.3367                68.0154

                    43                     44                     45
                     A                      A                      A
 Frequencies --   799.1622               805.9638               815.0213
 Red. masses --     5.5883                 5.3533                 2.5908
 Frc consts  --     2.1028                 2.0488                 1.0140
 IR Inten    --     3.6681                 0.3991                32.9060

                    46                     47                     48
                     A                      A                      A
 Frequencies --   824.2883               830.6883               831.4305
 Red. masses --     7.8340                 7.2208                 3.7680
 Frc consts  --     3.1361                 2.9357                 1.5347
 IR Inten    --    22.0285                10.8295                42.8361

                    49                     50                     51
                     A                      A                      A
 Frequencies --   834.2419               873.0501               877.1864
 Red. masses --     2.3695                 7.9705                 1.2624
 Frc consts  --     0.9716                 3.5794                 0.5723
 IR Inten    --    29.4434                 5.1926                13.4456

                    52                     53                     54
                     A                      A                      A
 Frequencies --   882.5462               890.5611               909.8067
 Red. masses --     4.4259                 5.1789                 2.7665
 Frc consts  --     2.0311                 2.4200                 1.3492
 IR Inten    --    36.4345                 6.4022                 0.5025

                    55                     56                     57
                     A                      A                      A
 Frequencies --   913.3890               925.6933               974.0009
 Red. masses --     2.0359                 7.7607                 3.5792
 Frc consts  --     1.0007                 3.9182                 2.0006
 IR Inten    --     1.5502                 5.7838                 5.9580

                    58                     59                     60
                     A                      A                      A
 Frequencies --   977.6078               979.6280               983.3968
 Red. masses --     1.6796                 2.4230                 2.0894
 Frc consts  --     0.9458                 1.3700                 1.1905
 IR Inten    --     1.0516                15.4078                 8.1252

                    61                     62                     63
                     A                      A                      A
 Frequencies --   986.3199              1042.4436              1067.6849
 Red. masses --     1.4651                 2.5966                 3.0878
 Frc consts  --     0.8398                 1.6625                 2.0739
 IR Inten    --     1.9708                24.7906                 1.3578

                    64                     65                     66
                     A                      A                      A
 Frequencies --  1085.5255              1092.5337              1124.0833
 Red. masses --     2.7019                 2.2104                 4.6864
 Frc consts  --     1.8759                 1.5545                 3.4889
 IR Inten    --     1.5979                21.9729                15.5684

                    67                     68                     69
                     A                      A                      A
 Frequencies --  1174.9122              1186.2740              1208.7467
 Red. masses --     1.3849                 1.4224                 1.8585
 Frc consts  --     1.1264                 1.1794                 1.5999
 IR Inten    --     0.9463                 0.5755                 3.1067

                    70                     71                     72
                     A                      A                      A
 Frequencies --  1228.2750              1253.8044              1290.7112
 Red. masses --     1.7160                 2.5596                 2.5905
 Frc consts  --     1.5253                 2.3707                 2.5427
 IR Inten    --     6.4695                 8.2537                 1.1939

                    73                     74                     75
                     A                      A                      A
 Frequencies --  1318.8052              1328.4654              1352.3819
 Red. masses --     3.9607                 2.4614                 5.3319
 Frc consts  --     4.0587                 2.5594                 5.7456
 IR Inten    --    44.8195                33.1288                43.5644

                    76                     77                     78
                     A                      A                      A
 Frequencies --  1364.0861              1370.1793              1386.4481
 Red. masses --     3.1787                 3.5444                 3.3246
 Frc consts  --     3.4848                 3.9205                 3.7652
 IR Inten    --    39.1740                12.2007                57.3740

                    79                     80                     81
                     A                      A                      A
 Frequencies --  1392.6645              1402.4644              1421.4539
 Red. masses --     2.5914                 3.5954                 2.6839
 Frc consts  --     2.9612                 4.1666                 3.1951
 IR Inten    --    10.7500                 5.5999                 6.3468

                    82                     83                     84
                     A                      A                      A
 Frequencies --  1433.5573              1457.2537              1481.7287
 Red. masses --     3.3119                 3.7426                 7.0692
 Frc consts  --     4.0102                 4.6826                 9.1445
 IR Inten    --     2.9753                 8.0635                56.0681

                    85                     86                     87
                     A                      A                      A
 Frequencies --  1493.8000              1537.4390              1544.5565
 Red. masses --     6.7486                 5.6411                 5.7779
 Frc consts  --     8.8725                 7.8562                 8.1214
 IR Inten    --   413.9904                 1.4628               106.0213

                    88                     89                     90
                     A                      A                      A
 Frequencies --  1546.5584              1550.0544              1563.6869
 Red. masses --     5.9798                 5.8400                 5.5947
 Frc consts  --     8.4269                 8.2671                 8.0599
 IR Inten    --     3.6671                 2.3560                 3.0755

                    91                     92                     93
                     A                      A                      A
 Frequencies --  1610.8533              1614.2174              1646.3711
 Red. masses --     7.1856                 6.3916                 5.8542
 Frc consts  --    10.9856                 9.8126                 9.3491
 IR Inten    --    41.2467                 3.1630                 3.0258

                    94                     95                     96
                     A                      A                      A
 Frequencies --  3157.3297              3173.5819              3185.0948
 Red. masses --     1.0881                 1.0944                 1.0861
 Frc consts  --     6.3907                 6.4941                 6.4916
 IR Inten    --     6.4718                47.6877                 3.2901

                    97                     98                     99
                     A                      A                      A
 Frequencies --  3188.6109              3195.0881              3207.9200
 Red. masses --     1.0897                 1.0908                 1.0968
 Frc consts  --     6.5276                 6.5608                 6.6499
 IR Inten    --    29.7243                11.5450                22.0443

                   100                    101                    102
                     A                      A                      A
 Frequencies --  3229.6792              3264.8337              3291.9568
 Red. masses --     1.0950                 1.0934                 1.0935
 Frc consts  --     6.7296                 6.8667                 6.9818
 IR Inten    --     5.0178                 0.6792                 1.0318

 - Thermochemistry -
 -------------------
 Temperature   298.150 Kelvin.  Pressure   1.00000 Atm.
 Atom     1 has atomic number  6 and mass  12.00000

 Molecular mass:   403.00201 amu.
 Principal axes and moments of inertia in atomic units:
                           1         2         3
     Eigenvalues --  5096.43999********************
           X            1.00000   0.00008   0.00053
           Y           -0.00008   0.99995   0.00972
           Z           -0.00052  -0.00972   0.99995
 This molecule is an asymmetric top.
 Rotational symmetry number  1.
 Warning -- assumption of classical behavior for rotation
           may cause significant error
 Rotational temperatures (Kelvin)      0.01699     0.00404     0.00360
 Rotational constants (GHZ):           0.35412     0.08408     0.07497
 Zero-point vibrational energy     635559.9 (Joules/Mol)
                                  151.90246 (Kcal/Mol)
 Warning -- explicit consideration of  33 degrees of freedom as
           vibrations may cause significant error
 Vibrational temperatures:     29.26    38.15    59.39    83.24   102.51
          (Kelvin)            106.09   205.95   223.38   226.01   246.56
                              271.80   285.01   305.83   367.16   375.16
                              408.60   438.32   508.20   595.94   628.18
                              653.46   655.97   673.28   698.43   719.96
                              722.33   756.67   780.90   807.38   816.80
                              834.89   846.85   872.74   902.25   916.16
                              921.87   948.00   963.00  1014.58  1057.49
                             1089.77  1125.03  1149.81  1159.60  1172.63
                             1185.97  1195.17  1196.24  1200.29  1256.12
                             1262.07  1269.79  1281.32  1309.01  1314.16
                             1331.86  1401.37  1406.56  1409.46  1414.89
                             1419.09  1499.84  1536.16  1561.83  1571.91
                             1617.30  1690.43  1706.78  1739.11  1767.21
                             1803.94  1857.04  1897.46  1911.36  1945.77
                             1962.61  1971.38  1994.79  2003.73  2017.83
                             2045.15  2062.57  2096.66  2131.87  2149.24
                             2212.03  2222.27  2225.15  2230.18  2249.79
                             2317.66  2322.50  2368.76  4542.69  4566.07
                             4582.64  4587.69  4597.01  4615.48  4646.78
                             4697.36  4736.39

 Zero-point correction=                           0.242072 (Hartree/Particle)
 Thermal correction to Energy=                    0.262102
 Thermal correction to Enthalpy=                  0.263046
 Thermal correction to Gibbs Free Energy=         0.191242
 Sum of electronic and zero-point Energies=          -2197.517340
 Sum of electronic and thermal Energies=             -2197.497310
 Sum of electronic and thermal Enthalpies=           -2197.496366
 Sum of electronic and thermal Free Energies=        -2197.568170

                     E (Thermal)             CV                S
                      KCal/Mol        Cal/Mol-Kelvin    Cal/Mol-Kelvin
 Total                  164.472             79.711            151.125
 Electronic               0.000              0.000              0.000
 Translational            0.889              2.981             43.873
 Rotational               0.889              2.981             36.219
 Vibrational            162.694             73.749             71.033
 Vibration     1          0.593              1.986              6.601
 Vibration     2          0.593              1.984              6.074
 Vibration     3          0.594              1.981              5.197
 Vibration     4          0.596              1.974              4.529
 Vibration     5          0.598              1.968              4.119
 Vibration     6          0.599              1.966              4.051
 Vibration     7          0.616              1.910              2.761
 Vibration     8          0.620              1.897              2.607
 Vibration     9          0.621              1.895              2.585
 Vibration    10          0.626              1.878              2.420
 Vibration    11          0.633              1.855              2.238
 Vibration    12          0.637              1.843              2.151
 Vibration    13          0.644              1.822              2.022
 Vibration    14          0.666              1.754              1.694
 Vibration    15          0.669              1.745              1.657
 Vibration    16          0.682              1.703              1.510
 Vibration    17          0.696              1.665              1.391
 Vibration    18          0.729              1.569              1.152
 Vibration    19          0.778              1.439              0.912
 Vibration    20          0.797              1.390              0.837
 Vibration    21          0.813              1.352              0.783
 Vibration    22          0.814              1.348              0.778
 Vibration    23          0.825              1.321              0.743
 Vibration    24          0.841              1.282              0.696
 Vibration    25          0.856              1.249              0.657
 Vibration    26          0.857              1.245              0.653
 Vibration    27          0.881              1.193              0.596
 Vibration    28          0.898              1.156              0.559
 Vibration    29          0.917              1.115              0.522
 Vibration    30          0.924              1.101              0.509
 Vibration    31          0.937              1.074              0.485
 Vibration    32          0.946              1.056              0.470
 Vibration    33          0.965              1.018              0.438

 Optimization completed.
    -- Stationary point found.
 Normal termination of Gaussian 09 at Sun Dec 29 15:08:40 2013.
