 Gaussian 09, Revision C.01,
 Gaussian 09:  EM64L-G09RevC.01 23-Sep-2011

 --------------------------------------------
 #B3LYP/6-31++G(d,p) opt scf=direct freq test
 --------------------------------------------

 Geom opt of No.13 candidate from the CEPDB database with SMILE code of
  [SiH2]1C=c2ccc3c4ccccc4c4cc(cnc4c3c2=C1)-c1cncc2nsnc12, HPC, 20131227
 , Shuo Dai, Gaussian09
 ----------------------------------------------------------------------
 Charge =  0 Multiplicity = 1

 SCF Done:  E(RB3LYP) =  -1829.34623370     A.U. after   25 cycles
 SCF Done:  E(RB3LYP) =  -1829.41503131     A.U. after   24 cycles
 SCF Done:  E(RB3LYP) =  -1829.48246734     A.U. after   24 cycles
 SCF Done:  E(RB3LYP) =  -1829.53741980     A.U. after   19 cycles
 SCF Done:  E(RB3LYP) =  -1829.59256199     A.U. after   18 cycles
 SCF Done:  E(RB3LYP) =  -1829.60095681     A.U. after   17 cycles
 SCF Done:  E(RB3LYP) =  -1829.60448693     A.U. after   19 cycles
 SCF Done:  E(RB3LYP) =  -1829.60706209     A.U. after   17 cycles
 SCF Done:  E(RB3LYP) =  -1829.61291192     A.U. after   19 cycles
 SCF Done:  E(RB3LYP) =  -1829.61675386     A.U. after   19 cycles
 SCF Done:  E(RB3LYP) =  -1829.65887098     A.U. after   13 cycles
 SCF Done:  E(RB3LYP) =  -1829.65912210     A.U. after   14 cycles
 SCF Done:  E(RB3LYP) =  -1829.65918545     A.U. after   13 cycles
 SCF Done:  E(RB3LYP) =  -1829.65920126     A.U. after   12 cycles
 SCF Done:  E(RB3LYP) =  -1829.65920370     A.U. after   12 cycles
 SCF Done:  E(RB3LYP) =  -1829.65920607     A.U. after   12 cycles
 SCF Done:  E(RB3LYP) =  -1829.65920681     A.U. after   12 cycles
 SCF Done:  E(RB3LYP) =  -1829.65920709     A.U. after   11 cycles
 SCF Done:  E(RB3LYP) =  -1829.65920719     A.U. after   11 cycles
 Optimization completed.
    -- Stationary point found.
 Normal termination of Gaussian 09 at Sun Dec 29 05:12:05 2013.

 ----------------------------------------------------------------------
 #N Geom=AllCheck Guess=TCheck SCRF=Check Test GenChk RB3LYP/6-31++G(d,
 p) Freq
 ----------------------------------------------------------------------

 Geom opt of No.13 candidate from the CEPDB database with SMILE code of
  [SiH2]1C=c2ccc3c4ccccc4c4cc(cnc4c3c2=C1)-c1cncc2nsnc12, HPC, 20131227
 , Shuo Dai, Gaussian09
 ----------------------------------------------------------------------
 Charge =  0 Multiplicity = 1

                         Standard orientation:
 ---------------------------------------------------------------------
 Center     Atomic      Atomic             Coordinates (Angstroms)
 Number     Number       Type             X           Y           Z
 ---------------------------------------------------------------------
      1         14           0        3.229169   -4.085852   -0.659536
      2          1           0        2.955333   -5.539876   -0.558864
      3          1           0        3.317879   -3.569317   -2.041947
      4          6           0        4.226543   -3.303402    0.720649
      5          6           0        4.383091   -1.827077    0.460824
      6          6           0        5.311133   -0.825104    0.196041
      7          6           0        4.797812    0.458240   -0.016443
      8          6           0        3.412770    0.752573    0.004238
      9          6           0        2.907020    2.114862   -0.226344
     10          6           0        3.779887    3.198897   -0.478759
     11          6           0        3.311356    4.482746   -0.705662
     12          6           0        1.931924    4.735242   -0.688138
     13          6           0        1.053251    3.693402   -0.441441
     14          6           0        1.506763    2.376047   -0.206471
     15          6           0        0.562903    1.285178    0.059834
     16          6           0       -0.831403    1.460560    0.099480
     17          6           0       -1.685460    0.389715    0.357968
     18          6           0       -1.083730   -0.873311    0.564649
     19          7           0        0.224025   -1.073352    0.537667
     20          6           0        1.047024   -0.027163    0.288297
     21          6           0        2.473399   -0.298274    0.253277
     22          6           0        3.010814   -1.570202    0.484490
     23          6           0        2.639984   -3.001998    0.746020
     24          6           0       -3.147885    0.579834    0.445136
     25          6           0       -3.703488    1.706806    1.027978
     26          7           0       -5.039892    1.993090    1.135245
     27          6           0       -5.921529    1.140564    0.671503
     28          6           0       -5.509166   -0.079775    0.056469
     29          7           0       -6.306716   -1.024756   -0.460184
     30         16           0       -5.309690   -2.185868   -1.050533
     31          7           0       -3.847942   -1.535768   -0.676027
     32          6           0       -4.097767   -0.369700   -0.061847
     33          1           0        4.757317   -3.847131    1.498180
     34          1           0        6.383062   -1.000270    0.176422
     35          1           0        5.507512    1.255544   -0.199276
     36          1           0        4.850079    3.035131   -0.498818
     37          1           0        4.014333    5.288349   -0.896071
     38          1           0        1.552074    5.736956   -0.864968
     39          1           0       -0.008895    3.908520   -0.431165
     40          1           0       -1.265371    2.434671   -0.093116
     41          1           0       -1.701376   -1.743105    0.768101
     42          1           0        1.954515   -3.323995    1.523363
     43          1           0       -3.049631    2.453185    1.469703
     44          1           0       -6.977977    1.380678    0.763082
 ---------------------------------------------------------------------

 SCF Done:  E(RB3LYP) =  -1829.65920719     A.U. after    2 cycles

 The electronic state is 1-A.
 Alpha  occ. eigenvalues --  -89.00094 -66.14721 -14.39988 -14.39544 -14.36384
 Alpha  occ. eigenvalues --  -14.34105 -10.27072 -10.26560 -10.25674 -10.24688
 Alpha  occ. eigenvalues --  -10.24002 -10.23979 -10.23413 -10.22475 -10.22059
 Alpha  occ. eigenvalues --  -10.21986 -10.21674 -10.21613 -10.21262 -10.20657
 Alpha  occ. eigenvalues --  -10.20415 -10.20303 -10.20229 -10.20193 -10.20170
 Alpha  occ. eigenvalues --  -10.20138 -10.20130 -10.20062 -10.20044 -10.19839
 Alpha  occ. eigenvalues --   -8.05403  -6.01952  -6.01368  -6.01177  -5.29546
 Alpha  occ. eigenvalues --   -3.65425  -3.65406  -3.65338  -1.04536  -0.96562
 Alpha  occ. eigenvalues --   -0.95710  -0.91753  -0.89717  -0.87872  -0.84795
 Alpha  occ. eigenvalues --   -0.83126  -0.81911  -0.80445  -0.78134  -0.76733
 Alpha  occ. eigenvalues --   -0.75382  -0.73676  -0.69679  -0.68839  -0.66763
 Alpha  occ. eigenvalues --   -0.65548  -0.64819  -0.63836  -0.61618  -0.61033
 Alpha  occ. eigenvalues --   -0.60424  -0.57999  -0.55111  -0.54809  -0.54082
 Alpha  occ. eigenvalues --   -0.53641  -0.52423  -0.51608  -0.50481  -0.50004
 Alpha  occ. eigenvalues --   -0.48569  -0.47767  -0.47066  -0.46709  -0.46163
 Alpha  occ. eigenvalues --   -0.44846  -0.43602  -0.43353  -0.42835  -0.42385
 Alpha  occ. eigenvalues --   -0.41832  -0.41585  -0.41370  -0.40500  -0.40372
 Alpha  occ. eigenvalues --   -0.39513  -0.38834  -0.38031  -0.37137  -0.36345
 Alpha  occ. eigenvalues --   -0.35842  -0.35417  -0.35066  -0.34494  -0.33522
 Alpha  occ. eigenvalues --   -0.32630  -0.31543  -0.31332  -0.30669  -0.30007
 Alpha  occ. eigenvalues --   -0.28533  -0.28452  -0.27228  -0.26365  -0.25705
 Alpha  occ. eigenvalues --   -0.24999  -0.22555  -0.21120
 Alpha virt. eigenvalues --   -0.11667  -0.06384  -0.05704  -0.04744  -0.02841
 Alpha virt. eigenvalues --   -0.02116  -0.01890  -0.01349  -0.00946  -0.00325
 Alpha virt. eigenvalues --   -0.00102   0.00287   0.00733   0.01022   0.01202

 Mulliken atomic charges:
              1
     1  Si   0.521138
     2  H   -0.069725
     3  H   -0.070326
     4  C   -0.634713
     5  C    0.350672
     6  C   -0.689758
     7  C   -0.658989
     8  C    0.939854
     9  C    1.037777
    10  C   -0.868623
    11  C   -0.586417
    12  C   -0.210339
    13  C   -0.968134
    14  C    0.740106
    15  C    0.766666
    16  C   -0.123615
    17  C    0.002039
    18  C   -0.032755
    19  N   -0.104068
    20  C    0.108576
    21  C    0.137409
    22  C   -0.051967
    23  C   -0.274046
    24  C   -0.711110
    25  C   -0.620813
    26  N   -0.104568
    27  C   -0.138971
    28  C    0.244588
    29  N   -0.420386
    30  S    0.891743
    31  N   -0.425755
    32  C    0.631597
    33  H    0.169840
    34  H    0.136219
    35  H    0.012619
    36  H    0.025701
    37  H    0.115171
    38  H    0.134845
    39  H    0.001576
    40  H    0.082638
    41  H    0.176474
    42  H    0.175532
    43  H    0.180979
    44  H    0.181316
 Sum of Mulliken atomic charges =  -0.00000

 Dipole moment (field-independent basis, Debye):
    X=              1.0332    Y=             -0.5401    Z=             -0.8314  Tot=              1.4319
 Quadrupole moment (field-independent basis, Debye-Ang):
   XX=           -179.0577   YY=           -171.5187   ZZ=           -190.2562
   XY=              5.4272   XZ=              2.0553   YZ=             -3.0664

  Exact polarizability: 527.089  -2.163 462.550  -5.951   9.240 200.538
 Approx polarizability: 803.487 -11.643 777.272 -12.286  25.350 348.573

                     1                      2                      3
                     A                      A                      A
 Frequencies --    19.6336                24.4934                43.6285
 Red. masses --     9.1173                 6.7418                 5.9548
 Frc consts  --     0.0021                 0.0024                 0.0067
 IR Inten    --     0.0311                 0.0508                 0.6312

                     4                      5                      6
                     A                      A                      A
 Frequencies --    50.6273                68.6198                85.6450
 Red. masses --     7.6128                 4.5003                 5.4818
 Frc consts  --     0.0115                 0.0125                 0.0237
 IR Inten    --     0.0077                 0.4741                 0.5474

                     7                      8                      9
                     A                      A                      A
 Frequencies --   106.3903               124.5512               137.4434
 Red. masses --     5.5200                 6.0124                 4.4798
 Frc consts  --     0.0368                 0.0550                 0.0499
 IR Inten    --     0.5547                 0.3921                 0.5072

                    10                     11                     12
                     A                      A                      A
 Frequencies --   150.7012               180.2442               194.6330
 Red. masses --     7.8802                 4.5588                 7.8809
 Frc consts  --     0.1054                 0.0873                 0.1759
 IR Inten    --     0.1008                 0.2640                 0.4925

                    13                     14                     15
                     A                      A                      A
 Frequencies --   216.4934               250.2657               267.1145
 Red. masses --     6.6367                 5.2920                 4.7034
 Frc consts  --     0.1833                 0.1953                 0.1977
 IR Inten    --     1.6836                 0.8527                 0.2441

                    16                     17                     18
                     A                      A                      A
 Frequencies --   273.9746               312.0847               335.5950
 Red. masses --     5.3969                 4.7274                 4.0422
 Frc consts  --     0.2387                 0.2713                 0.2682
 IR Inten    --     1.2856                 0.0769                 1.4326

                    19                     20                     21
                     A                      A                      A
 Frequencies --   348.9068               365.6744               413.3706
 Red. masses --     5.4135                 5.1401                 4.8171
 Frc consts  --     0.3883                 0.4050                 0.4850
 IR Inten    --     1.2281                 4.8728                 1.1593

                    22                     23                     24
                     A                      A                      A
 Frequencies --   423.7686               438.6629               440.4692
 Red. masses --     4.8551                 4.6691                 3.8978
 Frc consts  --     0.5137                 0.5293                 0.4456
 IR Inten    --     3.2403                 3.7498                 1.5734

                    25                     26                     27
                     A                      A                      A
 Frequencies --   457.3832               484.2414               493.8737
 Red. masses --     5.7536                 4.6165                 3.4542
 Frc consts  --     0.7092                 0.6378                 0.4964
 IR Inten    --     5.8535                 4.2746                 2.6531

                    28                     29                     30
                     A                      A                      A
 Frequencies --   510.8807               514.8677               535.1603
 Red. masses --     3.8654                 6.1719                 8.9749
 Frc consts  --     0.5944                 0.9640                 1.5144
 IR Inten    --     6.3254                 5.1004                 3.1528

                    31                     32                     33
                     A                      A                      A
 Frequencies --   554.0974               574.4631               584.7627
 Red. masses --     1.8341                 3.6291                 4.7817
 Frc consts  --     0.3318                 0.7056                 0.9634
 IR Inten    --     2.1161                 3.1936                 9.6611

                    34                     35                     36
                     A                      A                      A
 Frequencies --   591.0192               593.6108               617.0142
 Red. masses --     4.4912                 4.1903                 3.6814
 Frc consts  --     0.9243                 0.8700                 0.8258
 IR Inten    --     4.3188                 5.8024                 1.1754

                    37                     38                     39
                     A                      A                      A
 Frequencies --   622.0271               628.1346               638.8662
 Red. masses --     3.9895                 5.7904                 3.2950
 Frc consts  --     0.9095                 1.3460                 0.7924
 IR Inten    --     1.6986                 1.1499                 2.4097

                    40                     41                     42
                     A                      A                      A
 Frequencies --   643.4822               653.7527               655.6940
 Red. masses --     4.4720                 4.6371                 4.9943
 Frc consts  --     1.0910                 1.1677                 1.2651
 IR Inten    --     6.6268                 7.1772                 3.6522

                    43                     44                     45
                     A                      A                      A
 Frequencies --   660.9959               705.1381               723.0332
 Red. masses --     1.3321                 5.3026                 3.8469
 Frc consts  --     0.3429                 1.5534                 1.1849
 IR Inten    --    31.0341                 9.2664                18.6637

                    46                     47                     48
                     A                      A                      A
 Frequencies --   732.4505               750.4475               762.7050
 Red. masses --     6.9081                 3.4172                 2.0573
 Frc consts  --     2.1836                 1.1339                 0.7051
 IR Inten    --     2.2801                 2.5923                37.1767

                    49                     50                     51
                     A                      A                      A
 Frequencies --   775.5851               789.3478               792.5782
 Red. masses --     2.6199                 5.1421                 2.9466
 Frc consts  --     0.9285                 1.8877                 1.0906
 IR Inten    --    27.4266                 1.5679                14.2602

                    52                     53                     54
                     A                      A                      A
 Frequencies --   818.6478               820.9860               825.4713
 Red. masses --     2.8263                 6.2339                 2.0981
 Frc consts  --     1.1160                 2.4756                 0.8423
 IR Inten    --     8.5580                19.7068                10.0073

                    55                     56                     57
                     A                      A                      A
 Frequencies --   827.3497               831.5757               843.2995
 Red. masses --     9.4009                 1.7471                11.4416
 Frc consts  --     3.7914                 0.7118                 4.7940
 IR Inten    --    26.0455                15.8177                21.0398

                    58                     59                     60
                     A                      A                      A
 Frequencies --   871.0760               883.4544               902.5902
 Red. masses --     1.6711                 1.2705                 3.9375
 Frc consts  --     0.7471                 0.5843                 1.8900
 IR Inten    --     0.1593                66.4936                13.5451

                    61                     62                     63
                     A                      A                      A
 Frequencies --   906.9817               908.3590               925.2048
 Red. masses --     3.4965                 1.6953                 1.6437
 Frc consts  --     1.6947                 0.8241                 0.8290
 IR Inten    --    19.8074                16.3824                 8.2293

                    64                     65                     66
                     A                      A                      A
 Frequencies --   933.6732               946.7472               948.8110
 Red. masses --     2.9100                 1.3946                 1.3947
 Frc consts  --     1.4947                 0.7365                 0.7397
 IR Inten    --    74.6118                 1.0455                 2.9172

                    67                     68                     69
                     A                      A                      A
 Frequencies --   960.0729               963.1026               965.1672
 Red. masses --     1.3557                 1.5003                 1.6564
 Frc consts  --     0.7362                 0.8199                 0.9091
 IR Inten    --     2.3522                11.2759                42.9955

                    70                     71                     72
                     A                      A                      A
 Frequencies --   976.8585               991.8522               997.4252
 Red. masses --     7.7163                 1.2994                 2.0848
 Frc consts  --     4.3383                 0.7532                 1.2220
 IR Inten    --     4.0358                 0.0138                 0.1531

                    73                     74                     75
                     A                      A                      A
 Frequencies --  1061.7985              1064.9187              1082.0563
 Red. masses --     3.2323                 4.3318                 2.1456
 Frc consts  --     2.1471                 2.8944                 1.4801
 IR Inten    --     1.2654                 1.8132                 7.1206

                    76                     77                     78
                     A                      A                      A
 Frequencies --  1101.5371              1129.0331              1141.6403
 Red. masses --     2.5373                 3.5988                 1.5624
 Frc consts  --     1.8139                 2.7028                 1.1997
 IR Inten    --     3.6422                 7.3289                23.5191

                    79                     80                     81
                     A                      A                      A
 Frequencies --  1144.2979              1151.7144              1184.7219
 Red. masses --     1.6578                 2.1216                 1.5723
 Frc consts  --     1.2789                 1.6581                 1.3002
 IR Inten    --     2.1027                 6.1592                 8.7220

                    82                     83                     84
                     A                      A                      A
 Frequencies --  1190.1708              1201.1020              1227.6829
 Red. masses --     2.4315                 1.3087                 2.4565
 Frc consts  --     2.0293                 1.1123                 2.1814
 IR Inten    --     4.4266                 5.6687                11.9093

                    85                     86                     87
                     A                      A                      A
 Frequencies --  1252.6712              1268.0835              1288.7832
 Red. masses --     2.4263                 3.4450                 2.0186
 Frc consts  --     2.2432                 3.2639                 1.9754
 IR Inten    --    10.2996                24.4580                 0.5549

                    88                     89                     90
                     A                      A                      A
 Frequencies --  1301.7344              1315.8880              1322.3333
 Red. masses --     2.6076                 5.9516                 2.1848
 Frc consts  --     2.6034                 6.0718                 2.2509
 IR Inten    --    15.0513                 8.5048                24.7635

                    91                     92                     93
                     A                      A                      A
 Frequencies --  1349.9192              1355.2501              1365.5620
 Red. masses --     2.2811                 2.6147                 3.7792
 Frc consts  --     2.4491                 2.8295                 4.1521
 IR Inten    --    15.2251                10.0212                 0.4496

                    94                     95                     96
                     A                      A                      A
 Frequencies --  1373.3932              1377.4997              1399.9006
 Red. masses --     6.2633                 4.4471                 5.2426
 Frc consts  --     6.9605                 4.9717                 6.0533
 IR Inten    --    16.5147                 7.4350                 8.6442

                    97                     98                     99
                     A                      A                      A
 Frequencies --  1409.0092              1441.7266              1454.7873
 Red. masses --     2.6158                 3.1110                 2.5114
 Frc consts  --     3.0597                 3.8099                 3.1316
 IR Inten    --    34.0794                31.5056                17.2128

                   100                    101                    102
                     A                      A                      A
 Frequencies --  1468.2050              1471.6977              1506.7241
 Red. masses --     3.7384                 3.7619                 2.8754
 Frc consts  --     4.7480                 4.8006                 3.8461
 IR Inten    --    66.0323                 7.2726                19.1574

                   103                    104                    105
                     A                      A                      A
 Frequencies --  1511.8935              1529.5189              1555.1839
 Red. masses --     6.5935                 3.2369                 6.1017
 Frc consts  --     8.8799                 4.4616                 8.6950
 IR Inten    --    10.2514                12.3641                17.2734

                   106                    107                    108
                     A                      A                      A
 Frequencies --  1569.9498              1609.5849              1616.9650
 Red. masses --     4.7792                 6.2057                 6.6112
 Frc consts  --     6.9403                 9.4726                10.1844
 IR Inten    --     5.0627                 8.4061                13.9780

                   109                    110                    111
                     A                      A                      A
 Frequencies --  1617.0851              1636.1112              1646.5078
 Red. masses --     6.9812                 6.1468                 5.9798
 Frc consts  --    10.7559                 9.6945                 9.5513
 IR Inten    --    11.3428                45.0962                 6.2178

                   112                    113                    114
                     A                      A                      A
 Frequencies --  1656.7583              2235.2502              2273.8687
 Red. masses --     6.3513                 1.0311                 1.0543
 Frc consts  --    10.2714                 3.0352                 3.2117
 IR Inten    --     1.3720               232.3376                94.1052

                   115                    116                    117
                     A                      A                      A
 Frequencies --  3175.8924              3184.7475              3187.5075
 Red. masses --     1.0895                 1.0862                 1.0907
 Frc consts  --     6.4744                 6.4907                 6.5291
 IR Inten    --    12.7877                 0.7217                 8.8235

                   118                    119                    120
                     A                      A                      A
 Frequencies --  3189.4489              3194.4128              3196.0003
 Red. masses --     1.0899                 1.0915                 1.0909
 Frc consts  --     6.5322                 6.5620                 6.5653
 IR Inten    --    16.1021                 8.1424                14.1213

                   121                    122                    123
                     A                      A                      A
 Frequencies --  3198.3401              3201.8880              3209.0845
 Red. masses --     1.0909                 1.0901                 1.0935
 Frc consts  --     6.5747                 6.5849                 6.6348
 IR Inten    --    23.7632                 2.5365                 4.7325

                   124                    125                    126
                     A                      A                      A
 Frequencies --  3215.9936              3224.6694              3234.4783
 Red. masses --     1.0938                 1.0891                 1.0886
 Frc consts  --     6.6653                 6.6725                 6.7103
 IR Inten    --     0.1988                19.8490                27.2893

 - Thermochemistry -
 -------------------
 Temperature   298.150 Kelvin.  Pressure   1.00000 Atm.
 Atom     1 has atomic number 14 and mass  27.97693

 Molecular mass:   418.07085 amu.
 Principal axes and moments of inertia in atomic units:
                           1         2         3
     Eigenvalues --  8679.61560********************
           X            0.99997  -0.00686  -0.00286
           Y            0.00685   0.99996  -0.00492
           Z            0.00290   0.00490   0.99998
 This molecule is an asymmetric top.
 Rotational symmetry number  1.
 Warning -- assumption of classical behavior for rotation
           may cause significant error
 Rotational temperatures (Kelvin)      0.00998     0.00405     0.00299
 Rotational constants (GHZ):           0.20793     0.08433     0.06233
 Zero-point vibrational energy     829265.1 (Joules/Mol)
                                  198.19911 (Kcal/Mol)
 Warning -- explicit consideration of  36 degrees of freedom as
           vibrations may cause significant error
 Vibrational temperatures:     28.25    35.24    62.77    72.84    98.73
          (Kelvin)            123.22   153.07   179.20   197.75   216.83
                              259.33   280.03   311.49   360.08   384.32
                              394.19   449.02   482.85   502.00   526.12
                              594.75   609.71   631.14   633.74   658.07
                              696.71   710.57   735.04   740.78   769.98
                              797.22   826.52   841.34   850.34   854.07
                              887.74   894.96   903.74   919.18   925.83
                              940.60   943.40   951.02  1014.54  1040.28
                             1053.83  1079.73  1097.36  1115.89  1135.69
                             1140.34  1177.85  1181.21  1187.67  1190.37
                             1196.45  1213.32  1253.28  1271.09  1298.62
                             1304.94  1306.92  1331.16  1343.35  1362.16
                             1365.13  1381.33  1385.69  1388.66  1405.48
                             1427.05  1435.07  1527.69  1532.18  1556.84
                             1584.86  1624.42  1642.56  1646.39  1657.06
                             1704.55  1712.39  1728.12  1766.36  1802.31
                             1824.49  1854.27  1872.90  1893.27  1902.54
                             1942.23  1949.90  1964.74  1976.00  1981.91
                             2014.14  2027.25  2074.32  2093.11  2112.42
                             2117.44  2167.84  2175.27  2200.63  2237.56
                             2258.80  2315.83  2326.45  2326.62  2354.00
                             2368.95  2383.70  3216.02  3271.59  4569.40
                             4582.14  4586.11  4588.90  4596.04  4598.33
                             4601.69  4606.80  4617.15  4627.09  4639.57
                             4653.69

 Zero-point correction=                           0.315850 (Hartree/Particle)
 Thermal correction to Energy=                    0.337803
 Thermal correction to Enthalpy=                  0.338747
 Thermal correction to Gibbs Free Energy=         0.263315
 Sum of electronic and zero-point Energies=          -1829.343357
 Sum of electronic and thermal Energies=             -1829.321405
 Sum of electronic and thermal Enthalpies=           -1829.320460
 Sum of electronic and thermal Free Energies=        -1829.395893

                     E (Thermal)             CV                S
                      KCal/Mol        Cal/Mol-Kelvin    Cal/Mol-Kelvin
 Total                  211.974             90.679            158.760
 Electronic               0.000              0.000              0.000
 Translational            0.889              2.981             43.982
 Rotational               0.889              2.981             36.929
 Vibrational            210.197             84.717             77.850
 Vibration     1          0.593              1.986              6.671
 Vibration     2          0.593              1.985              6.232
 Vibration     3          0.595              1.980              5.087
 Vibration     4          0.595              1.977              4.793
 Vibration     5          0.598              1.969              4.193
 Vibration     6          0.601              1.959              3.757
 Vibration     7          0.605              1.944              3.334
 Vibration     8          0.610              1.928              3.029
 Vibration     9          0.614              1.916              2.839
 Vibration    10          0.618              1.902              2.663
 Vibration    11          0.629              1.867              2.326
 Vibration    12          0.635              1.847              2.183
 Vibration    13          0.645              1.816              1.988
 Vibration    14          0.663              1.762              1.729
 Vibration    15          0.672              1.733              1.615
 Vibration    16          0.676              1.721              1.571
 Vibration    17          0.700              1.651              1.351
 Vibration    18          0.717              1.604              1.233
 Vibration    19          0.726              1.577              1.171
 Vibration    20          0.739              1.543              1.098
 Vibration    21          0.777              1.441              0.915
 Vibration    22          0.786              1.419              0.879
 Vibration    23          0.799              1.386              0.831
 Vibration    24          0.800              1.382              0.825
 Vibration    25          0.816              1.345              0.774
 Vibration    26          0.840              1.285              0.699
 Vibration    27          0.850              1.264              0.674
 Vibration    28          0.866              1.226              0.631
 Vibration    29          0.870              1.217              0.622
 Vibration    30          0.890              1.172              0.576
 Vibration    31          0.910              1.131              0.536
 Vibration    32          0.931              1.086              0.496
 Vibration    33          0.942              1.064              0.477
 Vibration    34          0.948              1.051              0.465
 Vibration    35          0.951              1.045              0.461
 Vibration    36          0.977              0.996              0.421

 Optimization completed.
    -- Stationary point found.
 Normal termination of Gaussian 09 at Sun Dec 29 07:30:48 2013.
