 Gaussian 09, Revision C.01,
 Gaussian 09:  EM64L-G09RevC.01 23-Sep-2011

 --------------------------------------------
 #B3LYP/6-31++G(d,p) opt scf=direct freq test
 --------------------------------------------

 Geom opt of No.82 candidate from the CEPDB database with SMILE code of
  [SiH2]1C=c2ccc3c4nsnc4c4c(sc5cc(-c6cncs6)c6cscc6c45)c3c2=C1, HPC, 201
 31227, Shuo Dai, Gaussian09
 ----------------------------------------------------------------------
 Charge =  0 Multiplicity = 1

 SCF Done:  E(RB3LYP) =  -2928.45922794     A.U. after   49 cycles
 SCF Done:  E(RB3LYP) =  -2928.62360535     A.U. after   26 cycles
 SCF Done:  E(RB3LYP) =  -2928.88053895     A.U. after   23 cycles
 SCF Done:  E(RB3LYP) =  -2929.12308035     A.U. after   24 cycles
 SCF Done:  E(RB3LYP) =  -2929.17084647     A.U. after   23 cycles
 SCF Done:  E(RB3LYP) =  -2929.27863384     A.U. after   17 cycles
 SCF Done:  E(RB3LYP) =  -2929.35440816     A.U. after   24 cycles
 SCF Done:  E(RB3LYP) =  -2929.42710730     A.U. after   17 cycles
 SCF Done:  E(RB3LYP) =  -2929.47231942     A.U. after   18 cycles
 SCF Done:  E(RB3LYP) =  -2929.48306657     A.U. after   16 cycles
 SCF Done:  E(RB3LYP) =  -2929.49499248     A.U. after   10 cycles
 SCF Done:  E(RB3LYP) =  -2929.49499336     A.U. after   10 cycles
 SCF Done:  E(RB3LYP) =  -2929.49499459     A.U. after   11 cycles
 SCF Done:  E(RB3LYP) =  -2929.49499599     A.U. after   10 cycles
 SCF Done:  E(RB3LYP) =  -2929.49499716     A.U. after   10 cycles
 SCF Done:  E(RB3LYP) =  -2929.49499829     A.U. after   10 cycles
 SCF Done:  E(RB3LYP) =  -2929.49499909     A.U. after   10 cycles
 SCF Done:  E(RB3LYP) =  -2929.49499953     A.U. after   10 cycles
 SCF Done:  E(RB3LYP) =  -2929.49499966     A.U. after    9 cycles
 Optimization completed.
    -- Stationary point found.
 Normal termination of Gaussian 09 at Mon Dec 30 03:56:18 2013.

 ----------------------------------------------------------------------
 #N Geom=AllCheck Guess=TCheck SCRF=Check Test GenChk RB3LYP/6-31++G(d,
 p) Freq
 ----------------------------------------------------------------------

 Geom opt of No.82 candidate from the CEPDB database with SMILE code of
  [SiH2]1C=c2ccc3c4nsnc4c4c(sc5cc(-c6cncs6)c6cscc6c45)c3c2=C1, HPC, 201
 31227, Shuo Dai, Gaussian09
 ----------------------------------------------------------------------
 Charge =  0 Multiplicity = 1

                         Standard orientation:
 ---------------------------------------------------------------------
 Center     Atomic      Atomic             Coordinates (Angstroms)
 Number     Number       Type             X           Y           Z
 ---------------------------------------------------------------------
      1         14           0        3.153025   -3.618930    0.026191
      2          1           0        2.376486   -4.032171    1.221618
      3          1           0        2.417976   -4.039422   -1.192706
      4          6           0        5.720936   -3.067071    0.068827
      5          6           0        5.056460   -1.751532    0.053659
      6          6           0        5.766377   -0.546136    0.062729
      7          6           0        5.076818    0.661224    0.048243
      8          6           0        3.674847    0.670315    0.024342
      9          6           0        2.877729    1.847502    0.008595
     10          7           0        2.992659    3.172811    0.008060
     11         16           0        4.087668    4.350998    0.023817
     12          7           0        1.272980    3.213130   -0.021030
     13          6           0        1.431602    1.910021   -0.015804
     14          6           0        0.667119    0.699194   -0.027303
     15          6           0        1.443413   -0.474191   -0.011913
     16         16           0        0.405912   -1.872977   -0.028895
     17          6           0       -1.044535   -0.896209   -0.057641
     18          6           0       -2.368014   -1.415138   -0.061526
     19          6           0       -3.450589   -0.561710   -0.080692
     20          6           0       -4.804935   -1.131322   -0.112852
     21          6           0       -5.260880   -2.155184   -0.911419
     22          7           0       -6.557829   -2.564538   -0.717646
     23          6           0       -7.120842   -1.867530    0.226885
     24         16           0       -6.106919   -0.650106    0.959995
     25          6           0       -3.210369    0.868672   -0.094801
     26          6           0       -4.147952    1.887965   -0.149100
     27         16           0       -3.402855    3.435346   -0.156870
     28          6           0       -1.818193    2.777563   -0.097927
     29          6           0       -1.850230    1.394105   -0.073005
     30          6           0       -0.747599    0.467876   -0.051922
     31          6           0        2.917367   -0.563460    0.013776
     32          6           0        3.629351   -1.774056    0.029026
     33          6           0        4.938558   -4.168186    0.058489
     34          1           0        6.809567   -3.100668    0.087781
     35          1           0        6.852527   -0.553990    0.081235
     36          1           0        5.608268    1.607121    0.055225
     37          1           0       -2.529006   -2.487228   -0.022503
     38          1           0       -4.667722   -2.626497   -1.686125
     39          1           0       -8.143362   -2.004923    0.558180
     40          1           0       -5.223370    1.807001   -0.197488
     41          1           0       -0.951900    3.427733   -0.087878
     42          1           0        5.353976   -5.170213    0.069560
 ---------------------------------------------------------------------

 SCF Done:  E(RB3LYP) =  -2929.49499966     A.U. after    2 cycles

 The electronic state is 1-A.
 Alpha  occ. eigenvalues --  -88.94795 -88.93837 -88.93731 -88.90070 -66.15357
 Alpha  occ. eigenvalues --  -14.45730 -14.37962 -14.35873 -10.27144 -10.26781
 Alpha  occ. eigenvalues --  -10.26602 -10.26217 -10.25381 -10.25371 -10.24997
 Alpha  occ. eigenvalues --  -10.24260 -10.24174 -10.24079 -10.23775 -10.23720
 Alpha  occ. eigenvalues --  -10.23343 -10.23272 -10.22979 -10.22826 -10.22798
 Alpha  occ. eigenvalues --  -10.22789 -10.22682 -10.22614 -10.22262 -10.21909
 Alpha  occ. eigenvalues --  -10.20203  -8.00667  -7.99715  -7.99694  -7.95763
 Alpha  occ. eigenvalues --   -5.97099  -5.96732  -5.96369  -5.96105  -5.96084
 Alpha  occ. eigenvalues --   -5.95737  -5.95719  -5.95519  -5.95436  -5.92469
 Alpha  occ. eigenvalues --   -5.91710  -5.91299  -5.30110  -3.66009  -3.65951
 Alpha  occ. eigenvalues --   -3.65924  -1.04022  -0.98140  -0.93699  -0.91068
 Alpha  occ. eigenvalues --   -0.89547  -0.88390  -0.85890  -0.84282  -0.82031
 Alpha  occ. eigenvalues --   -0.80141  -0.79736  -0.77667  -0.77198  -0.75607
 Alpha  occ. eigenvalues --   -0.74550  -0.73167  -0.72069  -0.67758  -0.66851
 Alpha  occ. eigenvalues --   -0.65301  -0.61740  -0.61178  -0.60482  -0.59346
 Alpha  occ. eigenvalues --   -0.58463  -0.58043  -0.57071  -0.54508  -0.54026
 Alpha  occ. eigenvalues --   -0.53183  -0.51556  -0.50783  -0.49836  -0.49081
 Alpha  occ. eigenvalues --   -0.48220  -0.47482  -0.47380  -0.45981  -0.45823
 Alpha  occ. eigenvalues --   -0.44951  -0.44653  -0.43879  -0.43420  -0.43236
 Alpha  occ. eigenvalues --   -0.42342  -0.41850  -0.41799  -0.41166  -0.39987
 Alpha  occ. eigenvalues --   -0.39671  -0.39179  -0.38466  -0.38272  -0.37568
 Alpha  occ. eigenvalues --   -0.37335  -0.36395  -0.35793  -0.34281  -0.34258
 Alpha  occ. eigenvalues --   -0.33204  -0.33071  -0.32058  -0.31442  -0.29892
 Alpha  occ. eigenvalues --   -0.29751  -0.29145  -0.27218  -0.26924  -0.26344
 Alpha  occ. eigenvalues --   -0.25206  -0.24232  -0.22198  -0.20684
 Alpha virt. eigenvalues --   -0.13145  -0.09275  -0.07648  -0.05161  -0.04858
 Alpha virt. eigenvalues --   -0.04400  -0.02899  -0.01354  -0.01314  -0.01232
 Alpha virt. eigenvalues --   -0.00794  -0.00612  -0.00260  -0.00120   0.00318

 Mulliken atomic charges:
              1
     1  Si   0.609439
     2  H   -0.083247
     3  H   -0.082379
     4  C    0.247465
     5  C    0.371254
     6  C   -0.973693
     7  C   -0.572446
     8  C    0.765615
     9  C    0.376590
    10  N   -0.358942
    11  S    0.071351
    12  N   -0.284545
    13  C   -0.053625
    14  C    0.263071
    15  C   -0.194468
    16  S   -0.101789
    17  C   -0.653032
    18  C   -0.325788
    19  C    0.491120
    20  C   -0.305886
    21  C   -0.344524
    22  N   -0.061170
    23  C   -0.160044
    24  S    0.400339
    25  C   -0.093144
    26  C    0.089548
    27  S    0.073935
    28  C   -0.050705
    29  C   -0.064603
    30  C    0.478825
    31  C    0.202180
    32  C   -0.633777
    33  C   -0.405123
    34  H    0.125059
    35  H    0.100323
    36  H    0.096383
    37  H    0.147954
    38  H    0.174868
    39  H    0.187163
    40  H    0.156780
    41  H    0.229268
    42  H    0.144402
 Sum of Mulliken atomic charges =  -0.00000

 Dipole moment (field-independent basis, Debye):
    X=              0.9474    Y=             -4.0720    Z=              0.7617  Tot=              4.2495
 Quadrupole moment (field-independent basis, Debye-Ang):
   XX=           -188.8538   YY=           -225.6213   ZZ=           -219.8363
   XY=            -24.0449   XZ=             -7.2125   YZ=             -2.0467

  Exact polarizability: 688.059  14.787 578.595   1.437   8.725 200.599
 Approx polarizability:1050.494  62.2061215.700   1.816  29.511 352.530

                     1                      2                      3
                     A                      A                      A
 Frequencies --    20.7323                28.8501                40.9549
 Red. masses --     9.9802                 9.6041                10.1015
 Frc consts  --     0.0025                 0.0047                 0.0100
 IR Inten    --     0.2517                 0.2618                 0.5421

                     4                      5                      6
                     A                      A                      A
 Frequencies --    46.6686                57.2689                71.5601
 Red. masses --     6.5909                 9.4039                 9.8502
 Frc consts  --     0.0085                 0.0182                 0.0297
 IR Inten    --     0.9995                 0.4614                 0.1494

                     7                      8                      9
                     A                      A                      A
 Frequencies --    95.3125               100.3199               109.3337
 Red. masses --    13.9550                 8.5693                 8.3403
 Frc consts  --     0.0747                 0.0508                 0.0587
 IR Inten    --     0.5484                 0.3222                 0.1541

                    10                     11                     12
                     A                      A                      A
 Frequencies --   111.4408               143.5457               161.8494
 Red. masses --     5.0877                 5.8941                10.6472
 Frc consts  --     0.0372                 0.0716                 0.1643
 IR Inten    --     0.2453                 0.0428                 0.8625

                    13                     14                     15
                     A                      A                      A
 Frequencies --   183.7314               191.5686               193.1778
 Red. masses --     6.1154                 9.3401                 5.9441
 Frc consts  --     0.1216                 0.2020                 0.1307
 IR Inten    --     0.3265                 0.6985                 2.2746

                    16                     17                     18
                     A                      A                      A
 Frequencies --   217.0200               242.9146               258.4518
 Red. masses --     5.7784                 7.7406                 6.4480
 Frc consts  --     0.1603                 0.2691                 0.2538
 IR Inten    --     0.3298                 2.8076                 0.6818

                    19                     20                     21
                     A                      A                      A
 Frequencies --   271.7619               280.0707               308.2500
 Red. masses --     7.9403                 7.3624                18.2918
 Frc consts  --     0.3455                 0.3403                 1.0240
 IR Inten    --     0.6711                 0.7924                 1.3455

                    22                     23                     24
                     A                      A                      A
 Frequencies --   311.2316               327.4441               373.9116
 Red. masses --     3.1183                11.5304                 7.7192
 Frc consts  --     0.1780                 0.7284                 0.6359
 IR Inten    --     2.2346                12.3868                 0.2969

                    25                     26                     27
                     A                      A                      A
 Frequencies --   381.9385               386.2125               398.8204
 Red. masses --    10.2231                 4.5200                 5.0713
 Frc consts  --     0.8787                 0.3972                 0.4753
 IR Inten    --     0.0956                 0.1632                 0.1570

                    28                     29                     30
                     A                      A                      A
 Frequencies --   424.5154               458.6201               462.0173
 Red. masses --     9.4617                 7.3268                 6.7581
 Frc consts  --     1.0046                 0.9080                 0.8499
 IR Inten    --     1.7457                 7.6211                 4.3214

                    31                     32                     33
                     A                      A                      A
 Frequencies --   468.1259               481.1260               486.2239
 Red. masses --     6.5274                 7.7584                 3.4230
 Frc consts  --     0.8428                 1.0581                 0.4768
 IR Inten    --     3.4231                 0.2243                 4.9826

                    34                     35                     36
                     A                      A                      A
 Frequencies --   505.7136               529.4814               573.3376
 Red. masses --     6.3190                 9.4165                 7.1973
 Frc consts  --     0.9522                 1.5554                 1.3939
 IR Inten    --     0.7079                16.3657                 3.4124

                    37                     38                     39
                     A                      A                      A
 Frequencies --   576.5177               584.8380               599.7635
 Red. masses --     2.9513                 7.1627                 3.5283
 Frc consts  --     0.5779                 1.4434                 0.7478
 IR Inten    --     9.1738                 1.4367                 1.6714

                    40                     41                     42
                     A                      A                      A
 Frequencies --   604.8664               607.5328               622.3077
 Red. masses --     2.7958                 9.8656                 3.3197
 Frc consts  --     0.6027                 2.1454                 0.7575
 IR Inten    --     9.1629                55.8705                13.6623

                    43                     44                     45
                     A                      A                      A
 Frequencies --   634.0017               639.6872               648.8565
 Red. masses --     3.9967                 8.9079                 8.2576
 Frc consts  --     0.9465                 2.1476                 2.0483
 IR Inten    --    25.3318                 3.4635                24.8277

                    46                     47                     48
                     A                      A                      A
 Frequencies --   674.4656               675.9631               682.4909
 Red. masses --     5.1436                 6.7608                 1.5454
 Frc consts  --     1.3786                 1.8201                 0.4241
 IR Inten    --     2.5799                 3.7497                 4.3817

                    49                     50                     51
                     A                      A                      A
 Frequencies --   694.7636               719.1837               727.3171
 Red. masses --     2.1259                 4.7214                 4.7784
 Frc consts  --     0.6046                 1.4388                 1.4893
 IR Inten    --     1.8731                28.0503                 1.7412

                    52                     53                     54
                     A                      A                      A
 Frequencies --   731.3070               739.6495               748.1535
 Red. masses --     1.9127                 7.1041                 7.0882
 Frc consts  --     0.6027                 2.2899                 2.3376
 IR Inten    --    18.3824                 0.3802                32.3350

                    55                     56                     57
                     A                      A                      A
 Frequencies --   764.1806               769.6669               792.1215
 Red. masses --     1.4934                 9.0343                 4.5126
 Frc consts  --     0.5138                 3.1532                 1.6683
 IR Inten    --    19.6209                41.5719                12.7783

                    58                     59                     60
                     A                      A                      A
 Frequencies --   797.2619               800.4528               810.9552
 Red. masses --     1.2968                 3.0590                 1.3314
 Frc consts  --     0.4857                 1.1548                 0.5159
 IR Inten    --    23.6893                12.0044                36.1968

                    61                     62                     63
                     A                      A                      A
 Frequencies --   812.8202               833.1559               860.1151
 Red. masses --     6.4325                 2.3800                 1.4945
 Frc consts  --     2.5039                 0.9734                 0.6514
 IR Inten    --    10.2103               143.5861                47.8313

                    64                     65                     66
                     A                      A                      A
 Frequencies --   869.5791               877.0357               882.3585
 Red. masses --     3.4843                 1.7585                 3.2735
 Frc consts  --     1.5523                 0.7969                 1.5016
 IR Inten    --    34.7523                24.9692                42.9655

                    67                     68                     69
                     A                      A                      A
 Frequencies --   886.4547               896.0461               909.3925
 Red. masses --     1.6106                 4.1554                 4.2040
 Frc consts  --     0.7457                 1.9657                 2.0484
 IR Inten    --     4.5665                10.6760                21.3918

                    70                     71                     72
                     A                      A                      A
 Frequencies --   935.8875               955.8047               970.5212
 Red. masses --     7.4854                 1.0704                 6.9529
 Frc consts  --     3.8629                 0.5761                 3.8585
 IR Inten    --    31.3276                96.1743                10.8416

                    73                     74                     75
                     A                      A                      A
 Frequencies --   974.7822              1002.9269              1030.1297
 Red. masses --     1.3352                 1.3186                 3.9917
 Frc consts  --     0.7475                 0.7815                 2.4957
 IR Inten    --     0.0328                 1.8052                 5.1531

                    76                     77                     78
                     A                      A                      A
 Frequencies --  1058.7733              1106.5064              1124.5356
 Red. masses --     7.8597                 2.2193                 1.7334
 Frc consts  --     5.1911                 1.6009                 1.2915
 IR Inten    --    33.0022                14.9192                 5.1565

                    79                     80                     81
                     A                      A                      A
 Frequencies --  1132.1481              1152.5968              1157.8452
 Red. masses --     3.2749                 2.1624                 1.4754
 Frc consts  --     2.4732                 1.6925                 1.1654
 IR Inten    --    15.9615                14.8995                 2.5125

                    82                     83                     84
                     A                      A                      A
 Frequencies --  1203.4444              1218.6852              1238.7661
 Red. masses --     1.4776                 2.4924                 2.7446
 Frc consts  --     1.2608                 2.1810                 2.4814
 IR Inten    --     4.5050                26.5992                15.9037

                    85                     86                     87
                     A                      A                      A
 Frequencies --  1249.4346              1254.4281              1279.1320
 Red. masses --     1.6568                 2.7356                 1.6986
 Frc consts  --     1.5239                 2.5363                 1.6374
 IR Inten    --    17.1307                29.1877                18.8909

                    88                     89                     90
                     A                      A                      A
 Frequencies --  1299.1905              1326.0575              1345.8992
 Red. masses --     6.6759                 2.5961                 2.9088
 Frc consts  --     6.6390                 2.6897                 3.1045
 IR Inten    --    57.2082                 0.8095                 3.2075

                    91                     92                     93
                     A                      A                      A
 Frequencies --  1356.2590              1364.7529              1382.0649
 Red. masses --     2.7011                 2.0848                 5.0412
 Frc consts  --     2.9273                 2.2879                 5.6734
 IR Inten    --     1.3101                 6.4516                29.3715

                    94                     95                     96
                     A                      A                      A
 Frequencies --  1387.7998              1404.5749              1427.2061
 Red. masses --     7.8839                 5.3794                 3.7164
 Frc consts  --     8.9464                 6.2528                 4.4601
 IR Inten    --    17.9323                68.2400                21.4021

                    97                     98                     99
                     A                      A                      A
 Frequencies --  1447.3487              1458.5116              1465.2039
 Red. masses --     7.5955                 7.0879                 8.6152
 Frc consts  --     9.3747                 8.8836                10.8971
 IR Inten    --    77.0494                18.5700                38.5519

                   100                    101                    102
                     A                      A                      A
 Frequencies --  1488.6039              1509.4119              1546.6435
 Red. masses --     9.9348                 7.9086                 5.8658
 Frc consts  --    12.9708                10.6161                 8.2672
 IR Inten    --    49.0642                 0.6239                13.4357

                   103                    104                    105
                     A                      A                      A
 Frequencies --  1565.2488              1566.8294              1575.6680
 Red. masses --     7.1996                 7.4859                 6.9480
 Frc consts  --    10.3927                10.8277                10.1635
 IR Inten    --    75.2044               113.4841               100.2624

                   106                    107                    108
                     A                      A                      A
 Frequencies --  1595.9907              1612.4899              1616.1070
 Red. masses --     7.0281                 7.9420                 6.8780
 Frc consts  --    10.5474                12.1667                10.5840
 IR Inten    --    15.4618                 4.3882                21.0202

                   109                    110                    111
                     A                      A                      A
 Frequencies --  1643.6304              2238.2179              2239.9816
 Red. masses --     9.5945                 1.0307                 1.0507
 Frc consts  --    15.2715                 3.0423                 3.1061
 IR Inten    --     6.7846                92.1620                88.5698

                   112                    113                    114
                     A                      A                      A
 Frequencies --  3158.6601              3190.3811              3208.0029
 Red. masses --     1.0893                 1.0894                 1.0911
 Frc consts  --     6.4030                 6.5332                 6.6161
 IR Inten    --    23.8890                 9.7691                 8.3332

                   115                    116                    117
                     A                      A                      A
 Frequencies --  3214.2632              3215.9148              3231.6626
 Red. masses --     1.0945                 1.0945                 1.0961
 Frc consts  --     6.6622                 6.6695                 6.7445
 IR Inten    --     2.6894                 6.7053                36.0630

                   118                    119                    120
                     A                      A                      A
 Frequencies --  3232.6807              3238.2378              3279.9190
 Red. masses --     1.0924                 1.0948                 1.0934
 Frc consts  --     6.7260                 6.7643                 6.9302
 IR Inten    --     2.9546                 0.9011                 3.3974

 - Thermochemistry -
 -------------------
 Temperature   298.150 Kelvin.  Pressure   1.00000 Atm.
 Atom     1 has atomic number 14 and mass  27.97693

 Molecular mass:   484.96051 amu.
 Principal axes and moments of inertia in atomic units:
                           1         2         3
     Eigenvalues --  ******************************
           X            0.99996  -0.00855   0.00081
           Y            0.00855   0.99996   0.00072
           Z           -0.00082  -0.00071   1.00000
 This molecule is an asymmetric top.
 Rotational symmetry number  1.
 Warning -- assumption of classical behavior for rotation
           may cause significant error
 Rotational temperatures (Kelvin)      0.00854     0.00319     0.00235
 Rotational constants (GHZ):           0.17798     0.06640     0.04887
 Zero-point vibrational energy     718097.5 (Joules/Mol)
                                  171.62942 (Kcal/Mol)
 Warning -- explicit consideration of  41 degrees of freedom as
           vibrations may cause significant error
 Vibrational temperatures:     29.83    41.51    58.92    67.15    82.40
          (Kelvin)            102.96   137.13   144.34   157.31   160.34
                              206.53   232.86   264.35   275.62   277.94
                              312.24   349.50   371.85   391.00   402.96
                              443.50   447.79   471.12   537.97   549.52
                              555.67   573.81   610.78   659.85   664.74
                              673.53   692.23   699.57   727.61   761.80
                              824.90   829.48   841.45   862.92   870.27
                              874.10   895.36   912.19   920.37   933.56
                              970.40   972.56   981.95   999.61  1034.74
                             1046.45  1052.19  1064.19  1076.42  1099.48
                             1107.38  1139.68  1147.08  1151.67  1166.78
                             1169.47  1198.72  1237.51  1251.13  1261.86
                             1269.52  1275.41  1289.21  1308.41  1346.53
                             1375.19  1396.36  1402.49  1442.99  1482.13
                             1523.34  1592.01  1617.95  1628.91  1658.33
                             1665.88  1731.49  1753.41  1782.31  1797.66
                             1804.84  1840.38  1869.24  1907.90  1936.45
                             1951.35  1963.57  1988.48  1996.73  2020.87
                             2053.43  2082.41  2098.47  2108.10  2141.77
                             2171.70  2225.27  2252.04  2254.32  2267.03
                             2296.27  2320.01  2325.21  2364.81  3220.29
                             3222.83  4544.60  4590.24  4615.59  4624.60
                             4626.98  4649.64  4651.10  4659.10  4719.07

 Zero-point correction=                           0.273509 (Hartree/Particle)
 Thermal correction to Energy=                    0.298365
 Thermal correction to Enthalpy=                  0.299309
 Thermal correction to Gibbs Free Energy=         0.217375
 Sum of electronic and zero-point Energies=          -2929.221491
 Sum of electronic and thermal Energies=             -2929.196635
 Sum of electronic and thermal Enthalpies=           -2929.195690
 Sum of electronic and thermal Free Energies=        -2929.277624

                     E (Thermal)             CV                S
                      KCal/Mol        Cal/Mol-Kelvin    Cal/Mol-Kelvin
 Total                  187.227             98.443            172.444
 Electronic               0.000              0.000              0.000
 Translational            0.889              2.981             44.424
 Rotational               0.889              2.981             37.563
 Vibrational            185.449             92.482             90.457
 Vibration     1          0.593              1.986              6.563
 Vibration     2          0.593              1.984              5.907
 Vibration     3          0.594              1.981              5.212
 Vibration     4          0.595              1.979              4.954
 Vibration     5          0.596              1.975              4.549
 Vibration     6          0.598              1.968              4.110
 Vibration     7          0.603              1.953              3.548
 Vibration     8          0.604              1.949              3.448
 Vibration     9          0.606              1.942              3.281
 Vibration    10          0.607              1.940              3.244
 Vibration    11          0.616              1.910              2.756
 Vibration    12          0.622              1.889              2.528
 Vibration    13          0.631              1.862              2.290
 Vibration    14          0.634              1.852              2.213
 Vibration    15          0.635              1.849              2.197
 Vibration    16          0.646              1.815              1.984
 Vibration    17          0.659              1.774              1.781
 Vibration    18          0.667              1.748              1.672
 Vibration    19          0.675              1.725              1.585
 Vibration    20          0.680              1.710              1.533
 Vibration    21          0.698              1.658              1.372
 Vibration    22          0.700              1.652              1.356
 Vibration    23          0.711              1.621              1.273
 Vibration    24          0.745              1.526              1.064
 Vibration    25          0.751              1.509              1.031
 Vibration    26          0.755              1.500              1.015
 Vibration    27          0.765              1.473              0.967
 Vibration    28          0.787              1.417              0.877
 Vibration    29          0.817              1.342              0.770
 Vibration    30          0.820              1.334              0.760
 Vibration    31          0.825              1.321              0.743
 Vibration    32          0.837              1.292              0.707
 Vibration    33          0.842              1.281              0.693
 Vibration    34          0.861              1.237              0.644
 Vibration    35          0.884              1.185              0.588
 Vibration    36          0.930              1.089              0.498
 Vibration    37          0.933              1.082              0.492
 Vibration    38          0.942              1.064              0.476
 Vibration    39          0.958              1.032              0.450
 Vibration    40          0.963              1.021              0.441
 Vibration    41          0.966              1.016              0.437

 Normal termination of Gaussian 09 at Mon Dec 30 06:07:17 2013.
