 Gaussian 09, Revision C.01,
 Gaussian 09:  EM64L-G09RevC.01 23-Sep-2011

 --------------------------------------------
 #B3LYP/6-31++G(d,p) opt scf=direct freq test
 --------------------------------------------

 Geom opt of No.43 candidate from the CEPDB database with SMILE code of
  c1csc(c1)-c1ccc([nH]1)-c1ncc(-c2nccc3nsnc23)c2nsnc12, HPC, 20131227,
 Shuo Dai, Gaussian09
 ----------------------------------------------------------------------
 Charge =  0 Multiplicity = 1

 SCF Done:  E(RB3LYP) =  -2269.13814490     A.U. after   25 cycles
 SCF Done:  E(RB3LYP) =  -2269.15058655     A.U. after   19 cycles
 SCF Done:  E(RB3LYP) =  -2269.16029260     A.U. after   17 cycles
 SCF Done:  E(RB3LYP) =  -2269.16147438     A.U. after   14 cycles
 SCF Done:  E(RB3LYP) =  -2269.16233589     A.U. after   17 cycles
 SCF Done:  E(RB3LYP) =  -2269.06470790     A.U. after   19 cycles
 SCF Done:  E(RB3LYP) =  -2269.16233963     A.U. after   18 cycles
 SCF Done:  E(RB3LYP) =  -2269.16304268     A.U. after   18 cycles
 SCF Done:  E(RB3LYP) =  -2269.07651917     A.U. after   19 cycles
 SCF Done:  E(RB3LYP) =  -2269.16321892     A.U. after   19 cycles
 SCF Done:  E(RB3LYP) =  -2269.17057426     A.U. after   12 cycles
 SCF Done:  E(RB3LYP) =  -2269.17057494     A.U. after   12 cycles
 SCF Done:  E(RB3LYP) =  -2269.17057687     A.U. after   14 cycles
 SCF Done:  E(RB3LYP) =  -2269.17057705     A.U. after   13 cycles
 SCF Done:  E(RB3LYP) =  -2269.17057004     A.U. after   13 cycles
 SCF Done:  E(RB3LYP) =  -2269.17057830     A.U. after   13 cycles
 SCF Done:  E(RB3LYP) =  -2269.17057818     A.U. after   14 cycles
 SCF Done:  E(RB3LYP) =  -2269.17057866     A.U. after   13 cycles
 SCF Done:  E(RB3LYP) =  -2269.17057889     A.U. after   11 cycles
 Optimization completed.
    -- Stationary point found.
 Normal termination of Gaussian 09 at Sun Dec 29 11:23:00 2013.

 ----------------------------------------------------------------------
 #N Geom=AllCheck Guess=TCheck SCRF=Check Test GenChk RB3LYP/6-31++G(d,
 p) Freq
 ----------------------------------------------------------------------

 Geom opt of No.43 candidate from the CEPDB database with SMILE code of
  c1csc(c1)-c1ccc([nH]1)-c1ncc(-c2nccc3nsnc23)c2nsnc12, HPC, 20131227,
 Shuo Dai, Gaussian09
 ----------------------------------------------------------------------
 Charge =  0 Multiplicity = 1

                         Standard orientation:
 ---------------------------------------------------------------------
 Center     Atomic      Atomic             Coordinates (Angstroms)
 Number     Number       Type             X           Y           Z
 ---------------------------------------------------------------------
      1          6           0        6.860144   -1.950878   -0.403470
      2          6           0        7.779830   -1.079187    0.119225
      3         16           0        7.044580    0.415472    0.600607
      4          6           0        5.462266   -0.131048    0.082445
      5          6           0        5.541717   -1.414196   -0.426506
      6          6           0        4.303641    0.723550    0.214650
      7          6           0        4.201976    2.083644    0.553045
      8          6           0        2.845286    2.433846    0.527086
      9          6           0        2.117734    1.289054    0.173967
     10          7           0        3.032099    0.268140   -0.007988
     11          1           0        2.757424   -0.673930   -0.257982
     12          6           0        0.698168    1.120224    0.012808
     13          7           0       -0.091798    2.176948    0.196992
     14          6           0       -1.433825    2.062942    0.062169
     15          6           0       -2.139418    0.906142   -0.242160
     16          6           0       -3.610508    0.935992   -0.340643
     17          7           0       -4.166519    1.957377   -0.967041
     18          6           0       -5.529686    2.044780   -1.079758
     19          6           0       -6.426591    1.127489   -0.590255
     20          6           0       -5.881881    0.028040    0.125361
     21          7           0       -6.553151   -0.951617    0.748868
     22         16           0       -5.414818   -1.893062    1.472902
     23          7           0       -4.050605   -1.104405    1.021907
     24          6           0       -4.446053   -0.071480    0.268657
     25          6           0       -1.337779   -0.252157   -0.481296
     26          7           0       -1.743026   -1.465294   -0.881309
     27         16           0       -0.400579   -2.391817   -1.043772
     28          7           0        0.748591   -1.284586   -0.629662
     29          6           0        0.100281   -0.147925   -0.351329
     30          1           0        7.114829   -2.940298   -0.765377
     31          1           0        8.843177   -1.223192    0.251848
     32          1           0        4.688075   -1.954135   -0.821172
     33          1           0        5.034149    2.735645    0.778737
     34          1           0        2.406681    3.398774    0.731800
     35          1           0       -1.993574    2.978855    0.227647
     36          1           0       -5.881850    2.921322   -1.616517
     37          1           0       -7.496767    1.238561   -0.721106
 ---------------------------------------------------------------------

 SCF Done:  E(RB3LYP) =  -2269.17057889     A.U. after    2 cycles

 The electronic state is 1-A.
 Alpha  occ. eigenvalues --  -88.99739 -88.99290 -88.92763 -14.40032 -14.39876
 Alpha  occ. eigenvalues --  -14.39196 -14.38940 -14.38703 -14.35560 -14.34909
 Alpha  occ. eigenvalues --  -10.26807 -10.26735 -10.26707 -10.26645 -10.26208
 Alpha  occ. eigenvalues --  -10.26041 -10.25188 -10.24556 -10.24336 -10.24199
 Alpha  occ. eigenvalues --  -10.23814 -10.23243 -10.22381 -10.22007 -10.21312
 Alpha  occ. eigenvalues --  -10.21217 -10.19925 -10.19850  -8.05016  -8.04603
 Alpha  occ. eigenvalues --   -7.98693  -6.01583  -6.01153  -6.01001  -6.00761
 Alpha  occ. eigenvalues --   -6.00570  -6.00375  -5.95121  -5.94746  -5.94397
 Alpha  occ. eigenvalues --   -1.04247  -1.03741  -1.00472  -0.96489  -0.95638
 Alpha  occ. eigenvalues --   -0.91552  -0.90808  -0.89712  -0.82948  -0.81516
 Alpha  occ. eigenvalues --   -0.80735  -0.79846  -0.78632  -0.76459  -0.75107
 Alpha  occ. eigenvalues --   -0.72424  -0.68777  -0.67453  -0.65301  -0.64297
 Alpha  occ. eigenvalues --   -0.63721  -0.61824  -0.60689  -0.60151  -0.57597
 Alpha  occ. eigenvalues --   -0.56573  -0.54817  -0.53941  -0.53051  -0.52317
 Alpha  occ. eigenvalues --   -0.52092  -0.49364  -0.48416  -0.47599  -0.47450
 Alpha  occ. eigenvalues --   -0.46878  -0.45851  -0.44625  -0.44394  -0.42873
 Alpha  occ. eigenvalues --   -0.42417  -0.42102  -0.40985  -0.40831  -0.40549
 Alpha  occ. eigenvalues --   -0.40234  -0.39866  -0.39752  -0.39163  -0.38615
 Alpha  occ. eigenvalues --   -0.35897  -0.35782  -0.35347  -0.34930  -0.34338
 Alpha  occ. eigenvalues --   -0.32717  -0.31501  -0.30137  -0.29516  -0.29393
 Alpha  occ. eigenvalues --   -0.28555  -0.27412  -0.27309  -0.27022  -0.26662
 Alpha  occ. eigenvalues --   -0.25079  -0.20236
 Alpha virt. eigenvalues --   -0.11886  -0.10706  -0.05657  -0.03369  -0.02276
 Alpha virt. eigenvalues --   -0.02205  -0.01883  -0.01342  -0.00968  -0.00422
 Alpha virt. eigenvalues --   -0.00375   0.00048   0.00743   0.00783   0.01409

 Mulliken atomic charges:
              1
     1  C   -0.477108
     2  C    0.035204
     3  S   -0.052386
     4  C   -0.418950
     5  C    0.383726
     6  C   -0.204256
     7  C   -0.144749
     8  C    0.080667
     9  C   -0.070057
    10  N   -0.124517
    11  H    0.497952
    12  C   -1.121500
    13  N   -0.184092
    14  C    0.002521
    15  C   -0.741146
    16  C   -1.002726
    17  N   -0.096328
    18  C   -0.003865
    19  C   -0.057932
    20  C   -0.465464
    21  N   -0.390828
    22  S    0.879936
    23  N   -0.385722
    24  C    1.193322
    25  C    0.963696
    26  N   -0.311209
    27  S    1.030583
    28  N   -0.454735
    29  C    0.378206
    30  H    0.121712
    31  H    0.197328
    32  H    0.086489
    33  H    0.137234
    34  H    0.174330
    35  H    0.206209
    36  H    0.154141
    37  H    0.184316
 Sum of Mulliken atomic charges =  -0.00000

 Dipole moment (field-independent basis, Debye):
    X=              1.6375    Y=             -2.2523    Z=             -0.2273  Tot=              2.7939
 Quadrupole moment (field-independent basis, Debye-Ang):
   XX=           -161.1317   YY=           -173.3969   ZZ=           -183.7821
   XY=            -10.3304   XZ=             -0.2304   YZ=              2.8117

  Exact polarizability: 758.686  -7.994 330.580  21.412   1.625 187.997
 Approx polarizability:1120.318   3.790 659.729  54.280   7.295 330.137

                     1                      2                      3
                     A                      A                      A
 Frequencies --     8.6817                18.5057                32.2479
 Red. masses --     7.3337                 9.2201                 7.8582
 Frc consts  --     0.0003                 0.0019                 0.0048
 IR Inten    --     0.0374                 0.2183                 0.2521

                     4                      5                      6
                     A                      A                      A
 Frequencies --    38.1493                58.7555                68.6716
 Red. masses --     8.5134                 7.9353                 9.8102
 Frc consts  --     0.0073                 0.0161                 0.0273
 IR Inten    --     0.2328                 0.3775                 0.2056

                     7                      8                      9
                     A                      A                      A
 Frequencies --    86.2890               114.1507               143.6039
 Red. masses --     6.2010                 5.9410                 7.1836
 Frc consts  --     0.0272                 0.0456                 0.0873
 IR Inten    --     0.0976                 0.6684                 0.5230

                    10                     11                     12
                     A                      A                      A
 Frequencies --   155.9222               167.9276               184.2944
 Red. masses --    10.8036                 8.4639                 7.2471
 Frc consts  --     0.1548                 0.1406                 0.1450
 IR Inten    --     2.4459                 0.8845                 0.1529

                    13                     14                     15
                     A                      A                      A
 Frequencies --   203.7857               211.4245               234.7823
 Red. masses --    10.5267                12.0708                10.8854
 Frc consts  --     0.2576                 0.3179                 0.3535
 IR Inten    --     0.7981                 0.6972                 1.0970

                    16                     17                     18
                     A                      A                      A
 Frequencies --   278.2932               296.4340               309.6525
 Red. masses --     5.9243                 7.7294                 6.2080
 Frc consts  --     0.2703                 0.4002                 0.3507
 IR Inten    --     3.2840                 0.8310                 0.7089

                    19                     20                     21
                     A                      A                      A
 Frequencies --   325.6558               378.4557               417.0566
 Red. masses --     7.0204                 7.1670                 5.3851
 Frc consts  --     0.4387                 0.6048                 0.5519
 IR Inten    --     5.2853                 4.9870                 2.6912

                    22                     23                     24
                     A                      A                      A
 Frequencies --   447.5012               450.9375               480.5684
 Red. masses --     7.3023                 9.0421                 6.7372
 Frc consts  --     0.8616                 1.0833                 0.9167
 IR Inten    --     3.3684                 2.0485                10.2921

                    25                     26                     27
                     A                      A                      A
 Frequencies --   493.9193               497.9431               516.9782
 Red. masses --     5.4728                10.2938                 9.4749
 Frc consts  --     0.7866                 1.5038                 1.4920
 IR Inten    --     1.1054                 8.4567                19.0863

                    28                     29                     30
                     A                      A                      A
 Frequencies --   531.4513               566.5634               568.6219
 Red. masses --    11.1998                 5.1537                 3.2963
 Frc consts  --     1.8638                 0.9747                 0.6279
 IR Inten    --    20.8347                10.2666                 5.2282

                    31                     32                     33
                     A                      A                      A
 Frequencies --   571.8416               583.3566               608.9595
 Red. masses --     7.0631                 5.9487                 7.0921
 Frc consts  --     1.3608                 1.1927                 1.5495
 IR Inten    --     4.9866                 8.5242                 3.0896

                    34                     35                     36
                     A                      A                      A
 Frequencies --   614.2425               635.7387               648.4360
 Red. masses --     3.9737                 2.1240                 7.7155
 Frc consts  --     0.8833                 0.5058                 1.9114
 IR Inten    --    12.1336                 7.2853                 1.4249

                    37                     38                     39
                     A                      A                      A
 Frequencies --   658.8705               682.1355               688.0387
 Red. masses --     4.5414                 5.6984                 3.0987
 Frc consts  --     1.1616                 1.5622                 0.8643
 IR Inten    --    11.3216                 0.7893                 7.4010

                    40                     41                     42
                     A                      A                      A
 Frequencies --   696.7929               711.1525               722.0936
 Red. masses --     1.2090                 3.5463                10.9800
 Frc consts  --     0.3459                 1.0567                 3.3732
 IR Inten    --    70.2736                21.5326                 1.4173

                    43                     44                     45
                     A                      A                      A
 Frequencies --   743.6499               767.0542               794.7636
 Red. masses --     6.8426                12.8449                 2.4040
 Frc consts  --     2.2295                 4.4528                 0.8947
 IR Inten    --     8.1852                13.6069                45.3813

                    46                     47                     48
                     A                      A                      A
 Frequencies --   806.5914               811.9413               822.4461
 Red. masses --     2.5514                 3.2340                 1.4454
 Frc consts  --     0.9780                 1.2561                 0.5760
 IR Inten    --    24.0369                19.2232                 5.4234

                    49                     50                     51
                     A                      A                      A
 Frequencies --   829.2220               832.6493               836.9391
 Red. masses --    10.3428                12.1101                 1.8054
 Frc consts  --     4.1902                 4.9468                 0.7451
 IR Inten    --    17.3777                66.1942                25.3105

                    52                     53                     54
                     A                      A                      A
 Frequencies --   840.8764               850.6155               854.6730
 Red. masses --    12.7697                 4.8802                10.7903
 Frc consts  --     5.3198                 2.0804                 4.6439
 IR Inten    --    68.9092                75.3174                10.7211

                    55                     56                     57
                     A                      A                      A
 Frequencies --   880.8690               898.5220               905.6777
 Red. masses --    10.6801                 6.9683                 1.3874
 Frc consts  --     4.8826                 3.3146                 0.6705
 IR Inten    --    10.7648                 1.4966                 1.2899

                    58                     59                     60
                     A                      A                      A
 Frequencies --   909.9696               917.0017               934.2139
 Red. masses --     1.3247                 7.1373                 8.4357
 Frc consts  --     0.6463                 3.5361                 4.3378
 IR Inten    --     0.0641                 9.3781                10.1086

                    61                     62                     63
                     A                      A                      A
 Frequencies --   960.4135               988.0434              1030.6880
 Red. masses --     1.4758                 1.3610                 4.3427
 Frc consts  --     0.8020                 0.7828                 2.7181
 IR Inten    --    11.0906                 0.0807                50.3197

                    64                     65                     66
                     A                      A                      A
 Frequencies --  1053.7878              1068.7303              1072.3133
 Red. masses --     2.4527                 2.8049                 1.2835
 Frc consts  --     1.6047                 1.8876                 0.8695
 IR Inten    --     7.0988                36.1787               120.1423

                    67                     68                     69
                     A                      A                      A
 Frequencies --  1085.5720              1099.9621              1112.9477
 Red. masses --     1.8897                 2.8619                 1.2080
 Frc consts  --     1.3121                 2.0401                 0.8816
 IR Inten    --     5.4664                 4.9509                 1.8763

                    70                     71                     72
                     A                      A                      A
 Frequencies --  1186.5623              1223.4249              1238.7965
 Red. masses --     2.7466                 3.8550                 1.9988
 Frc consts  --     2.2784                 3.3996                 1.8073
 IR Inten    --    84.0862                 9.6958                 3.6887

                    73                     74                     75
                     A                      A                      A
 Frequencies --  1259.0727              1280.3850              1302.5687
 Red. masses --     2.4483                 1.7612                 2.4340
 Frc consts  --     2.2867                 1.7011                 2.4332
 IR Inten    --     1.5405                 3.5019               385.9480

                    76                     77                     78
                     A                      A                      A
 Frequencies --  1332.6693              1335.9751              1342.9400
 Red. masses --     3.1887                 2.8347                 5.6878
 Frc consts  --     3.3366                 2.9810                 6.0437
 IR Inten    --   202.2592                65.0591                 6.2123

                    79                     80                     81
                     A                      A                      A
 Frequencies --  1354.6120              1359.7068              1373.5310
 Red. masses --     2.8832                 7.7027                 3.1598
 Frc consts  --     3.1172                 8.3905                 3.5123
 IR Inten    --   459.7136                58.3589                 4.9498

                    82                     83                     84
                     A                      A                      A
 Frequencies --  1392.6017              1401.8206              1437.7001
 Red. masses --     5.7665                 4.8337                 3.9672
 Frc consts  --     6.5890                 5.5964                 4.8314
 IR Inten    --     9.2491                 1.6547                 4.8132

                    85                     86                     87
                     A                      A                      A
 Frequencies --  1441.0971              1452.4248              1474.4476
 Red. masses --     4.5949                 4.3922                 5.4164
 Frc consts  --     5.6223                 5.4591                 6.9377
 IR Inten    --     4.4864               147.1334                 3.6448

                    88                     89                     90
                     A                      A                      A
 Frequencies --  1490.2490              1506.5754              1526.2930
 Red. masses --     6.4818                 6.3541                 5.3094
 Frc consts  --     8.4813                 8.4975                 7.2873
 IR Inten    --   329.0997               233.6200               480.5688

                    91                     92                     93
                     A                      A                      A
 Frequencies --  1546.0986              1561.4187              1571.4859
 Red. masses --     5.0930                 5.1105                 6.4111
 Frc consts  --     7.1729                 7.3410                 9.3284
 IR Inten    --   117.1880               502.0011                58.6706

                    94                     95                     96
                     A                      A                      A
 Frequencies --  1579.4684              1616.5705              1618.7659
 Red. masses --     8.2884                 6.2645                 4.9981
 Frc consts  --    12.1827                 9.6455                 7.7165
 IR Inten    --    90.9565                62.8648                43.3081

                    97                     98                     99
                     A                      A                      A
 Frequencies --  3189.9627              3199.9137              3212.1554
 Red. masses --     1.0896                 1.0908                 1.0894
 Frc consts  --     6.5328                 6.5805                 6.6227
 IR Inten    --    32.6027                12.1266                10.6132

                   100                    101                    102
                     A                      A                      A
 Frequencies --  3228.3831              3228.5047              3257.7181
 Red. masses --     1.0952                 1.0944                 1.0939
 Frc consts  --     6.7253                 6.7210                 6.8398
 IR Inten    --     6.2869                 6.1521                 5.1223

                   103                    104                    105
                     A                      A                      A
 Frequencies --  3266.9826              3284.9982              3597.5868
 Red. masses --     1.0974                 1.0992                 1.0820
 Frc consts  --     6.9006                 6.9884                 8.2512
 IR Inten    --     2.1112                 0.4825                92.0470

 - Thermochemistry -
 -------------------
 Temperature   298.150 Kelvin.  Pressure   1.00000 Atm.
 Atom     1 has atomic number  6 and mass  12.00000

 Molecular mass:   419.00816 amu.
 Principal axes and moments of inertia in atomic units:
                           1         2         3
     Eigenvalues --  4133.56927********************
           X            0.99997  -0.00696   0.00144
           Y            0.00695   0.99997   0.00445
           Z           -0.00147  -0.00444   0.99999
 This molecule is an asymmetric top.
 Rotational symmetry number  1.
 Warning -- assumption of classical behavior for rotation
           may cause significant error
 Rotational temperatures (Kelvin)      0.02095     0.00280     0.00258
 Rotational constants (GHZ):           0.43661     0.05834     0.05379
 Zero-point vibrational energy     648929.2 (Joules/Mol)
                                  155.09779 (Kcal/Mol)
 Warning -- explicit consideration of  34 degrees of freedom as
           vibrations may cause significant error
 Vibrational temperatures:     12.49    26.63    46.40    54.89    84.54
          (Kelvin)             98.80   124.15   164.24   206.61   224.34
                              241.61   265.16   293.20   304.19   337.80
                              400.40   426.50   445.52   468.55   544.51
                              600.05   643.85   648.80   691.43   710.64
                              716.43   743.82   764.64   815.16   818.12
                              822.75   839.32   876.16   883.76   914.68
                              932.95   947.97   981.44   989.93  1002.53
                             1023.19  1038.93  1069.94  1103.62  1143.49
                             1160.50  1168.20  1183.31  1193.06  1198.00
                             1204.17  1209.83  1223.84  1229.68  1267.37
                             1292.77  1303.07  1309.24  1319.36  1344.12
                             1381.82  1421.57  1482.93  1516.16  1537.66
                             1542.82  1561.89  1582.60  1601.28  1707.20
                             1760.23  1782.35  1811.52  1842.19  1874.10
                             1917.41  1922.17  1932.19  1948.98  1956.31
                             1976.20  2003.64  2016.90  2068.53  2073.41
                             2089.71  2121.40  2144.13  2167.62  2195.99
                             2224.49  2246.53  2261.01  2272.50  2325.88
                             2329.04  4589.64  4603.96  4621.57  4644.92
                             4645.09  4687.12  4700.45  4726.37  5176.12

 Zero-point correction=                           0.247164 (Hartree/Particle)
 Thermal correction to Energy=                    0.268338
 Thermal correction to Enthalpy=                  0.269282
 Thermal correction to Gibbs Free Energy=         0.192870
 Sum of electronic and zero-point Energies=          -2268.923415
 Sum of electronic and thermal Energies=             -2268.902241
 Sum of electronic and thermal Enthalpies=           -2268.901297
 Sum of electronic and thermal Free Energies=        -2268.977709

                     E (Thermal)             CV                S
                      KCal/Mol        Cal/Mol-Kelvin    Cal/Mol-Kelvin
 Total                  168.385             82.934            160.823
 Electronic               0.000              0.000              0.000
 Translational            0.889              2.981             43.989
 Rotational               0.889              2.981             36.704
 Vibrational            166.607             76.972             80.130
 Vibration     1          0.593              1.987              8.292
 Vibration     2          0.593              1.986              6.788
 Vibration     3          0.594              1.983              5.686
 Vibration     4          0.594              1.982              5.353
 Vibration     5          0.596              1.974              4.499
 Vibration     6          0.598              1.969              4.191
 Vibration     7          0.601              1.959              3.742
 Vibration     8          0.607              1.938              3.197
 Vibration     9          0.616              1.910              2.755
 Vibration    10          0.620              1.896              2.599
 Vibration    11          0.625              1.882              2.459
 Vibration    12          0.631              1.861              2.284
 Vibration    13          0.639              1.835              2.099
 Vibration    14          0.643              1.823              2.031
 Vibration    15          0.655              1.788              1.842
 Vibration    16          0.679              1.714              1.544
 Vibration    17          0.690              1.680              1.437
 Vibration    18          0.699              1.655              1.364
 Vibration    19          0.710              1.624              1.282
 Vibration    20          0.749              1.516              1.045
 Vibration    21          0.780              1.433              0.902
 Vibration    22          0.807              1.366              0.803
 Vibration    23          0.810              1.359              0.793
 Vibration    24          0.837              1.293              0.709
 Vibration    25          0.850              1.264              0.674
 Vibration    26          0.853              1.255              0.663
 Vibration    27          0.872              1.212              0.617
 Vibration    28          0.886              1.180              0.584
 Vibration    29          0.922              1.104              0.511
 Vibration    30          0.925              1.099              0.507
 Vibration    31          0.928              1.092              0.501
 Vibration    32          0.940              1.067              0.479
 Vibration    33          0.968              1.013              0.435
 Vibration    34          0.974              1.002              0.426

 Normal termination of Gaussian 09 at Sun Dec 29 12:43:53 2013.
