 Gaussian 09, Revision C.01,
 Gaussian 09:  EM64L-G09RevC.01 23-Sep-2011

 --------------------------------------------
 #B3LYP/6-31++G(d,p) opt scf=direct freq test
 --------------------------------------------

 Geom opt of No.89 candidate from the CEPDB database with SMILE code of
  [SiH2]1C=c2c(cc3c4cscc4c4c(sc5ccc6nsnc6c45)c3c2=C1)-c1ncncn1, HPC, 20
 131227, Shuo Dai, Gaussian09
 ----------------------------------------------------------------------
 Charge =  0 Multiplicity = 1

 SCF Done:  E(RB3LYP) =  -2639.15434731     A.U. after   25 cycles
 SCF Done:  E(RB3LYP) =  -2639.57105424     A.U. after   18 cycles
 SCF Done:  E(RB3LYP) =  -2640.04483317     A.U. after   18 cycles
 SCF Done:  E(RB3LYP) =  -2640.32710953     A.U. after   25 cycles
 SCF Done:  E(RB3LYP) =  -2640.33560423     A.U. after   23 cycles
 SCF Done:  E(RB3LYP) =  -2640.46612044     A.U. after   24 cycles
 SCF Done:  E(RB3LYP) =  -2640.46769105     A.U. after   25 cycles
 SCF Done:  E(RB3LYP) =  -2640.60420435     A.U. after   24 cycles
 SCF Done:  E(RB3LYP) =  -2640.68394158     A.U. after   19 cycles
 SCF Done:  E(RB3LYP) =  -2640.74540714     A.U. after   19 cycles
 SCF Done:  E(RB3LYP) =  -2640.81630886     A.U. after   13 cycles
 SCF Done:  E(RB3LYP) =  -2640.81631128     A.U. after   14 cycles
 SCF Done:  E(RB3LYP) =  -2640.81631397     A.U. after   14 cycles
 SCF Done:  E(RB3LYP) =  -2640.81631652     A.U. after   13 cycles
 SCF Done:  E(RB3LYP) =  -2640.81631738     A.U. after   13 cycles
 SCF Done:  E(RB3LYP) =  -2640.81631773     A.U. after   12 cycles
 SCF Done:  E(RB3LYP) =  -2640.81631796     A.U. after   11 cycles
 SCF Done:  E(RB3LYP) =  -2640.81631810     A.U. after   10 cycles
 SCF Done:  E(RB3LYP) =  -2640.81631816     A.U. after   10 cycles
 Optimization completed.
    -- Stationary point found.
 Normal termination of Gaussian 09 at Mon Dec 30 08:36:12 2013.

 ----------------------------------------------------------------------
 #N Geom=AllCheck Guess=TCheck SCRF=Check Test GenChk RB3LYP/6-31++G(d,
 p) Freq
 ----------------------------------------------------------------------

 Geom opt of No.89 candidate from the CEPDB database with SMILE code of
  [SiH2]1C=c2c(cc3c4cscc4c4c(sc5ccc6nsnc6c45)c3c2=C1)-c1ncncn1, HPC, 20
 131227, Shuo Dai, Gaussian09
 ----------------------------------------------------------------------
 Charge =  0 Multiplicity = 1

                         Standard orientation:
 ---------------------------------------------------------------------
 Center     Atomic      Atomic             Coordinates (Angstroms)
 Number     Number       Type             X           Y           Z
 ---------------------------------------------------------------------
      1         14           0        1.423983   -3.584298   -0.190708
      2          1           0        0.782455   -4.213136    0.992244
      3          1           0        0.708850   -4.041859   -1.409621
      4          6           0        3.850580   -2.587185   -0.170033
      5          6           0        2.977911   -1.401643   -0.058469
      6          6           0        3.424812   -0.063268   -0.005536
      7          6           0        2.465339    0.964523   -0.005105
      8          6           0        1.095903    0.710636   -0.007042
      9          6           0        0.103129    1.737054    0.002394
     10          6           0       -0.162169    3.073207   -0.011178
     11         16           0        0.787267    4.524091   -0.079144
     12          6           0       -1.708405    2.779520   -0.020474
     13          6           0       -1.397551    1.464403   -0.009392
     14          6           0       -1.847475    0.108973    0.001820
     15          6           0       -0.847547   -0.876906    0.008247
     16         16           0       -1.567645   -2.467444    0.066037
     17          6           0       -3.188552   -1.827135    0.062862
     18          6           0       -4.380169   -2.611299    0.096450
     19          6           0       -5.605207   -1.996053    0.094846
     20          6           0       -5.660487   -0.565852    0.059489
     21          7           0       -6.777995    0.166890    0.052917
     22         16           0       -6.309751    1.745753    0.007958
     23          7           0       -4.668715    1.549703   -0.004689
     24          6           0       -4.445764    0.234598    0.026336
     25          6           0       -3.174211   -0.428207    0.028375
     26          6           0        0.622626   -0.656768   -0.019638
     27          6           0        1.567573   -1.687763   -0.066065
     28          6           0        3.265697   -3.803960   -0.257253
     29          6           0        4.848345    0.358495    0.044542
     30          7           0        5.130853    1.611700   -0.373176
     31          6           0        6.406717    1.977568   -0.284865
     32          7           0        7.414556    1.222862    0.172026
     33          6           0        7.029896    0.002999    0.560798
     34          7           0        5.787265   -0.479228    0.526452
     35          1           0        4.923596   -2.445829   -0.170749
     36          1           0        2.813417    1.990413    0.003378
     37          1           0       -0.238254    5.376794    0.117262
     38          1           0       -2.604843    3.379636   -0.043986
     39          1           0       -4.310014   -3.694183    0.122628
     40          1           0       -6.528606   -2.563225    0.119225
     41          1           0        3.855122   -4.710026   -0.348927
     42          1           0        6.654923    2.983236   -0.617847
     43          1           0        7.801966   -0.659149    0.947307
 ---------------------------------------------------------------------

 SCF Done:  E(RB3LYP) =  -2640.81631816     A.U. after    2 cycles

 The electronic state is 1-A.
 Alpha  occ. eigenvalues --  -88.98400 -88.94305 -88.92579 -66.14006 -14.38541
 Alpha  occ. eigenvalues --  -14.38439 -14.36520 -14.36469 -14.36452 -10.29918
 Alpha  occ. eigenvalues --  -10.28748 -10.28698 -10.26318 -10.26209 -10.25935
 Alpha  occ. eigenvalues --  -10.25595 -10.25529 -10.24077 -10.23458 -10.23428
 Alpha  occ. eigenvalues --  -10.23412 -10.22522 -10.22463 -10.22429 -10.22374
 Alpha  occ. eigenvalues --  -10.22339 -10.21103 -10.20747 -10.20680 -10.20670
 Alpha  occ. eigenvalues --  -10.20317 -10.18553  -8.03745  -8.00182  -7.98546
 Alpha  occ. eigenvalues --   -6.00318  -5.99734  -5.99462  -5.96611  -5.96242
 Alpha  occ. eigenvalues --   -5.95889  -5.95017  -5.94646  -5.94140  -5.28781
 Alpha  occ. eigenvalues --   -3.64676  -3.64615  -3.64604  -1.04151  -1.03038
 Alpha  occ. eigenvalues --   -0.93250  -0.92502  -0.91814  -0.90551  -0.90373
 Alpha  occ. eigenvalues --   -0.87898  -0.85378  -0.81901  -0.80705  -0.79449
 Alpha  occ. eigenvalues --   -0.78874  -0.75644  -0.75437  -0.74127  -0.70258
 Alpha  occ. eigenvalues --   -0.69920  -0.67204  -0.66851  -0.64877  -0.63448
 Alpha  occ. eigenvalues --   -0.62235  -0.61667  -0.59881  -0.57197  -0.56849
 Alpha  occ. eigenvalues --   -0.56183  -0.55210  -0.53753  -0.52744  -0.50938
 Alpha  occ. eigenvalues --   -0.50577  -0.50095  -0.48859  -0.48121  -0.47134
 Alpha  occ. eigenvalues --   -0.46729  -0.46612  -0.45008  -0.44564  -0.44416
 Alpha  occ. eigenvalues --   -0.43957  -0.43646  -0.42682  -0.41856  -0.40536
 Alpha  occ. eigenvalues --   -0.40281  -0.40130  -0.39681  -0.39389  -0.39033
 Alpha  occ. eigenvalues --   -0.38327  -0.37709  -0.36442  -0.36242  -0.35748
 Alpha  occ. eigenvalues --   -0.34932  -0.34437  -0.33873  -0.33563  -0.32930
 Alpha  occ. eigenvalues --   -0.32302  -0.31862  -0.31625  -0.31492  -0.31236
 Alpha  occ. eigenvalues --   -0.29113  -0.28617  -0.27824  -0.27554  -0.25926
 Alpha  occ. eigenvalues --   -0.25096  -0.23643  -0.17060
 Alpha virt. eigenvalues --   -0.11281  -0.10095  -0.07557  -0.06819  -0.06104
 Alpha virt. eigenvalues --   -0.02785  -0.02611  -0.02449  -0.01556  -0.01318
 Alpha virt. eigenvalues --   -0.00413  -0.00300   0.00002   0.00335   0.00586

 Mulliken atomic charges:
              1
     1  Si   0.632653
     2  H   -0.101677
     3  H   -0.088336
     4  C   -0.257466
     5  C    0.038722
     6  C    0.101713
     7  C   -0.306113
     8  C    0.217813
     9  C   -0.305614
    10  C   -0.648347
    11  S   -0.118464
    12  C   -0.110946
    13  C    0.598155
    14  C    0.283412
    15  C   -0.613022
    16  S    0.008596
    17  C   -0.473322
    18  C   -0.307146
    19  C   -0.056643
    20  C    0.268828
    21  N   -0.387893
    22  S    0.852299
    23  N   -0.453694
    24  C    0.035542
    25  C    0.817884
    26  C    0.553737
    27  C   -0.520791
    28  C   -0.611295
    29  C   -0.153084
    30  N   -0.122917
    31  C    0.206412
    32  N   -0.223611
    33  C    0.184509
    34  N   -0.169393
    35  H    0.158723
    36  H    0.087218
    37  H    0.086501
    38  H    0.150328
    39  H    0.129893
    40  H    0.164405
    41  H    0.131678
    42  H    0.162349
    43  H    0.158407
 Sum of Mulliken atomic charges =  -0.00000

 Dipole moment (field-independent basis, Debye):
    X=             -0.8432    Y=             -0.3653    Z=              0.0627  Tot=              0.9211
 Quadrupole moment (field-independent basis, Debye-Ang):
   XX=           -218.1299   YY=           -187.1199   ZZ=           -217.3040
   XY=             -1.6468   XZ=             -0.8495   YZ=              1.0011

  Exact polarizability: 734.842 -21.472 544.486   1.450  -3.504 186.030
 Approx polarizability:1111.418 -98.2871093.620   2.931 -12.350 318.620

                     1                      2                      3
                     A                      A                      A
 Frequencies --    15.7147                21.7776                38.2304
 Red. masses --     7.5716                13.9930                 5.8964
 Frc consts  --     0.0011                 0.0039                 0.0051
 IR Inten    --     0.0129                 0.0422                 0.1479

                     4                      5                      6
                     A                      A                      A
 Frequencies --    46.1032                63.9153                66.8654
 Red. masses --     9.8854                 8.1410                 6.4003
 Frc consts  --     0.0124                 0.0196                 0.0169
 IR Inten    --     0.5542                 0.2864                 0.0629

                     7                      8                      9
                     A                      A                      A
 Frequencies --    84.5857                90.9448               102.7177
 Red. masses --     6.2719                 5.0059                 4.3239
 Frc consts  --     0.0264                 0.0244                 0.0269
 IR Inten    --     2.7583                 4.6330                 0.4957

                    10                     11                     12
                     A                      A                      A
 Frequencies --   117.4607               125.9402               155.2492
 Red. masses --     2.5844                 5.7814                 5.5564
 Frc consts  --     0.0210                 0.0540                 0.0789
 IR Inten    --    12.6117                 2.0296                 2.2931

                    13                     14                     15
                     A                      A                      A
 Frequencies --   157.3194               179.2289               193.0378
 Red. masses --     6.0531                 4.6857                 5.4126
 Frc consts  --     0.0883                 0.0887                 0.1188
 IR Inten    --     2.6070                 3.3006                 0.7997

                    16                     17                     18
                     A                      A                      A
 Frequencies --   205.4284               224.1667               247.7225
 Red. masses --     6.5547                 5.6360                 5.7344
 Frc consts  --     0.1630                 0.1669                 0.2073
 IR Inten    --     1.9788                 1.4754                 0.4289

                    19                     20                     21
                     A                      A                      A
 Frequencies --   270.7596               283.1817               299.5620
 Red. masses --    12.0989                 4.1755                 8.3439
 Frc consts  --     0.5226                 0.1973                 0.4412
 IR Inten    --     3.1249                 1.8885                 0.1929

                    22                     23                     24
                     A                      A                      A
 Frequencies --   310.6421               318.5940               334.8293
 Red. masses --     5.8173                 7.8633                 3.3229
 Frc consts  --     0.3307                 0.4703                 0.2195
 IR Inten    --     0.1640                 1.6130                 2.3503

                    25                     26                     27
                     A                      A                      A
 Frequencies --   359.1995               359.9029               375.7187
 Red. masses --     5.8487                 4.2435                 6.8130
 Frc consts  --     0.4446                 0.3238                 0.5666
 IR Inten    --     4.4661                 0.9965                 1.9115

                    28                     29                     30
                     A                      A                      A
 Frequencies --   385.2344               424.8213               431.3024
 Red. masses --    11.3075                 5.8594                 4.1226
 Frc consts  --     0.9887                 0.6230                 0.4518
 IR Inten    --     0.6191                 0.3208                 2.8893

                    31                     32                     33
                     A                      A                      A
 Frequencies --   440.3832               465.1618               490.4311
 Red. masses --     7.7277                 4.2248                 5.1372
 Frc consts  --     0.8830                 0.5386                 0.7280
 IR Inten    --     1.4202                22.0642                 0.0634

                    34                     35                     36
                     A                      A                      A
 Frequencies --   498.8358               512.2384               533.0958
 Red. masses --     5.5129                 8.5615                 5.7144
 Frc consts  --     0.8082                 1.3236                 0.9568
 IR Inten    --    13.2825                12.0082                21.1831

                    37                     38                     39
                     A                      A                      A
 Frequencies --   547.7747               550.0659               568.5905
 Red. masses --     4.2210                 4.5686                 4.7298
 Frc consts  --     0.7462                 0.8144                 0.9009
 IR Inten    --     3.1386                 4.8406                 0.7006

                    40                     41                     42
                     A                      A                      A
 Frequencies --   594.0424               607.2286               611.8575
 Red. masses --     3.6110                 2.0398                 6.0148
 Frc consts  --     0.7508                 0.4431                 1.3267
 IR Inten    --    19.5917                15.7835                 1.4633

                    43                     44                     45
                     A                      A                      A
 Frequencies --   627.3421               635.5800               656.4093
 Red. masses --     1.9471                 8.2660                 5.9488
 Frc consts  --     0.4515                 1.9674                 1.5102
 IR Inten    --     2.2670                 4.8516                 4.6663

                    46                     47                     48
                     A                      A                      A
 Frequencies --   658.2225               681.8339               698.0276
 Red. masses --     2.0505                 9.1602                 5.9362
 Frc consts  --     0.5234                 2.5091                 1.7041
 IR Inten    --    23.1570                32.3945                 7.0407

                    49                     50                     51
                     A                      A                      A
 Frequencies --   704.3425               712.5015               716.2477
 Red. masses --     3.3723                 8.1813                 7.9350
 Frc consts  --     0.9857                 2.4471                 2.3984
 IR Inten    --    21.1955                 7.1094                12.3655

                    52                     53                     54
                     A                      A                      A
 Frequencies --   736.1526               744.6173               752.0108
 Red. masses --     1.6388                 3.0304                 7.6098
 Frc consts  --     0.5232                 0.9899                 2.5356
 IR Inten    --    25.9364                 1.8412                 1.0901

                    55                     56                     57
                     A                      A                      A
 Frequencies --   769.1260               778.2156               787.1547
 Red. masses --     2.0024                 4.7563                 6.6397
 Frc consts  --     0.6979                 1.6971                 2.4239
 IR Inten    --    26.7428                 0.1995                21.5384

                    58                     59                     60
                     A                      A                      A
 Frequencies --   803.5053               807.6907               809.7452
 Red. masses --     3.1536                 5.0749                 1.8850
 Frc consts  --     1.1996                 1.9506                 0.7282
 IR Inten    --    24.2992                41.0461                23.6166

                    61                     62                     63
                     A                      A                      A
 Frequencies --   812.5706               829.7019               838.1287
 Red. masses --     7.6591                 5.5916                 4.3722
 Frc consts  --     2.9795                 2.2679                 1.8095
 IR Inten    --     2.9427                51.0448                15.0266

                    64                     65                     66
                     A                      A                      A
 Frequencies --   852.6741               867.4865               917.8699
 Red. masses --     5.3988                 2.5267                 4.1385
 Frc consts  --     2.3127                 1.1203                 2.0542
 IR Inten    --    35.8084               117.2725                21.9047

                    67                     68                     69
                     A                      A                      A
 Frequencies --   919.9271               947.4219               960.2587
 Red. masses --     1.7309                 2.7534                 1.1021
 Frc consts  --     0.8630                 1.4561                 0.5988
 IR Inten    --     8.7641                 0.1974               131.6073

                    70                     71                     72
                     A                      A                      A
 Frequencies --   966.7060               968.6698               977.8517
 Red. masses --     6.3463                 1.2883                 1.5713
 Frc consts  --     3.4943                 0.7122                 0.8852
 IR Inten    --    22.3807                 0.0103                 0.7378

                    73                     74                     75
                     A                      A                      A
 Frequencies --  1006.2300              1012.2385              1036.0691
 Red. masses --     1.3746                 8.4795                 2.1826
 Frc consts  --     0.8200                 5.1190                 1.3804
 IR Inten    --     4.2804                30.5435                38.7076

                    76                     77                     78
                     A                      A                      A
 Frequencies --  1037.9300              1041.4329              1054.9247
 Red. masses --     1.4917                 4.8918                 5.5572
 Frc consts  --     0.9469                 3.1260                 3.6437
 IR Inten    --     0.3024                16.9999                 0.1398

                    79                     80                     81
                     A                      A                      A
 Frequencies --  1113.6428              1123.6851              1150.1025
 Red. masses --     4.4382                 1.3609                 1.5693
 Frc consts  --     3.2430                 1.0125                 1.2230
 IR Inten    --    14.4340                 0.3053                27.2953

                    82                     83                     84
                     A                      A                      A
 Frequencies --  1161.1084              1171.6544              1182.5195
 Red. masses --     1.7704                 3.0149                 3.0760
 Frc consts  --     1.4062                 2.4385                 2.5343
 IR Inten    --     2.6153                38.9563                16.0889

                    85                     86                     87
                     A                      A                      A
 Frequencies --  1192.5817              1218.9549              1221.2079
 Red. masses --     7.8676                 2.1075                 6.3977
 Frc consts  --     6.5928                 1.8450                 5.6215
 IR Inten    --     7.5213                27.3628                53.1140

                    88                     89                     90
                     A                      A                      A
 Frequencies --  1249.3131              1279.9135              1293.6688
 Red. masses --     6.1434                 3.5607                 6.6702
 Frc consts  --     5.6494                 3.4368                 6.5771
 IR Inten    --    77.5801                13.3875                16.4204

                    91                     92                     93
                     A                      A                      A
 Frequencies --  1306.0493              1348.3474              1353.2837
 Red. masses --     3.0125                 3.0472                 5.6046
 Frc consts  --     3.0276                 3.2641                 6.0474
 IR Inten    --    45.9297                47.2980                 7.4173

                    94                     95                     96
                     A                      A                      A
 Frequencies --  1358.0015              1376.7143              1384.9646
 Red. masses --     1.9808                 4.3832                 4.4336
 Frc consts  --     2.1523                 4.8948                 5.0105
 IR Inten    --     9.0328                 8.3618                60.5922

                    97                     98                     99
                     A                      A                      A
 Frequencies --  1412.2466              1426.7613              1434.6849
 Red. masses --     4.9170                 1.5434                 3.4956
 Frc consts  --     5.7779                 1.8511                 4.2392
 IR Inten    --    73.1594                13.5149                58.6122

                   100                    101                    102
                     A                      A                      A
 Frequencies --  1451.4421              1459.3321              1471.0684
 Red. masses --     4.8833                 3.6936                 7.2117
 Frc consts  --     6.0613                 4.6346                 9.1950
 IR Inten    --   103.7915               457.6529                30.8882

                   103                    104                    105
                     A                      A                      A
 Frequencies --  1512.8504              1537.8033              1553.8323
 Red. masses --     8.7164                 9.7551                 6.2891
 Frc consts  --    11.7539                13.5920                 8.9464
 IR Inten    --     3.1094                78.7655                13.6468

                   106                    107                    108
                     A                      A                      A
 Frequencies --  1566.8839              1574.9084              1602.9989
 Red. masses --     6.0853                 8.4964                 5.3817
 Frc consts  --     8.8025                12.4163                 8.1477
 IR Inten    --   239.0820                32.2068               638.5132

                   109                    110                    111
                     A                      A                      A
 Frequencies --  1618.1059              1619.5931              1646.0293
 Red. masses --     7.2818                 5.9870                11.0747
 Frc consts  --    11.2331                 9.2527                17.6790
 IR Inten    --    34.3824               119.7656               334.5798

                   112                    113                    114
                     A                      A                      A
 Frequencies --  1679.1753              2230.5457              2231.5786
 Red. masses --     9.4141                 1.0466                 1.0346
 Frc consts  --    15.6394                 3.0678                 3.0357
 IR Inten    --    27.7993               104.3776               117.8467

                   115                    116                    117
                     A                      A                      A
 Frequencies --  2689.0955              3182.5220              3185.6330
 Red. masses --     1.0387                 1.0900                 1.0939
 Frc consts  --     4.4253                 6.5048                 6.5409
 IR Inten    --     0.1485                21.7894                33.4546

                   118                    119                    120
                     A                      A                      A
 Frequencies --  3201.4620              3208.7322              3225.1307
 Red. masses --     1.0892                 1.0890                 1.0902
 Frc consts  --     6.5777                 6.6059                 6.6814
 IR Inten    --     6.2006                 2.2090                 2.9917

                   121                    122                    123
                     A                      A                      A
 Frequencies --  3227.1857              3242.2997              3287.7733
 Red. masses --     1.0950                 1.0941                 1.0989
 Frc consts  --     6.7191                 6.7763                 6.9985
 IR Inten    --     2.3554                 7.1446                 0.0811

 - Thermochemistry -
 -------------------
 Temperature   298.150 Kelvin.  Pressure   1.00000 Atm.
 Atom     1 has atomic number 14 and mass  27.97693

 Molecular mass:   480.99459 amu.
 Principal axes and moments of inertia in atomic units:
                           1         2         3
     Eigenvalues --  8543.17213********************
           X            1.00000   0.00110  -0.00005
           Y           -0.00110   1.00000   0.00036
           Z            0.00005  -0.00036   1.00000
 This molecule is an asymmetric top.
 Rotational symmetry number  1.
 Warning -- assumption of classical behavior for rotation
           may cause significant error
 Rotational temperatures (Kelvin)      0.01014     0.00309     0.00238
 Rotational constants (GHZ):           0.21125     0.06440     0.04953
 Zero-point vibrational energy     734519.5 (Joules/Mol)
                                  175.55437 (Kcal/Mol)
 Warning -- explicit consideration of  42 degrees of freedom as
           vibrations may cause significant error
 Vibrational temperatures:     22.61    31.33    55.00    66.33    91.96
          (Kelvin)             96.20   121.70   130.85   147.79   169.00
                              181.20   223.37   226.35   257.87   277.74
                              295.57   322.53   356.42   389.56   407.43
                              431.00   446.94   458.39   481.74   516.81
                              517.82   540.57   554.27   611.22   620.55
                              633.61   669.26   705.62   717.71   737.00
                              767.00   788.12   791.42   818.07   854.69
                              873.67   880.33   902.60   914.46   944.43
                              947.03   981.01  1004.30  1013.39  1025.13
                             1030.52  1059.16  1071.34  1081.97  1106.60
                             1119.68  1132.54  1156.06  1162.09  1165.04
                             1169.11  1193.75  1205.88  1226.81  1248.12
                             1320.61  1323.57  1363.13  1381.60  1390.87
                             1393.70  1406.91  1447.74  1456.38  1490.67
                             1493.35  1498.39  1517.80  1602.28  1616.73
                             1654.74  1670.57  1685.75  1701.38  1715.86
                             1753.80  1757.04  1797.48  1841.51  1861.30
                             1879.11  1939.97  1947.07  1953.86  1980.78
                             1992.65  2031.91  2052.79  2064.19  2088.30
                             2099.65  2116.54  2176.65  2212.55  2235.62
                             2254.39  2265.94  2306.35  2328.09  2330.23
                             2368.27  2415.96  3209.25  3210.74  3869.00
                             4578.93  4583.41  4606.18  4616.64  4640.24
                             4643.19  4664.94  4730.37

 Zero-point correction=                           0.279764 (Hartree/Particle)
 Thermal correction to Energy=                    0.305258
 Thermal correction to Enthalpy=                  0.306202
 Thermal correction to Gibbs Free Energy=         0.222396
 Sum of electronic and zero-point Energies=          -2640.536554
 Sum of electronic and thermal Energies=             -2640.511060
 Sum of electronic and thermal Enthalpies=           -2640.510116
 Sum of electronic and thermal Free Energies=        -2640.593922

                     E (Thermal)             CV                S
                      KCal/Mol        Cal/Mol-Kelvin    Cal/Mol-Kelvin
 Total                  191.552            100.031            176.384
 Electronic               0.000              0.000              0.000
 Translational            0.889              2.981             44.400
 Rotational               0.889              2.981             37.409
 Vibrational            189.775             94.070             94.574
 Vibration     1          0.593              1.986              7.113
 Vibration     2          0.593              1.985              6.465
 Vibration     3          0.594              1.982              5.349
 Vibration     4          0.595              1.979              4.978
 Vibration     5          0.597              1.972              4.333
 Vibration     6          0.598              1.970              4.244
 Vibration     7          0.601              1.960              3.782
 Vibration     8          0.602              1.956              3.640
 Vibration     9          0.605              1.947              3.402
 Vibration    10          0.608              1.935              3.142
 Vibration    11          0.611              1.927              3.007
 Vibration    12          0.620              1.897              2.607
 Vibration    13          0.621              1.894              2.582
 Vibration    14          0.629              1.868              2.336
 Vibration    15          0.635              1.850              2.198
 Vibration    16          0.640              1.832              2.084
 Vibration    17          0.649              1.804              1.925
 Vibration    18          0.661              1.767              1.747
 Vibration    19          0.674              1.727              1.591
 Vibration    20          0.682              1.705              1.514
 Vibration    21          0.692              1.675              1.419
 Vibration    22          0.699              1.653              1.359
 Vibration    23          0.705              1.638              1.317
 Vibration    24          0.716              1.606              1.237
 Vibration    25          0.734              1.556              1.126
 Vibration    26          0.734              1.555              1.123
 Vibration    27          0.747              1.522              1.056
 Vibration    28          0.754              1.502              1.019
 Vibration    29          0.787              1.416              0.876
 Vibration    30          0.792              1.402              0.854
 Vibration    31          0.800              1.382              0.825
 Vibration    32          0.823              1.327              0.751
 Vibration    33          0.846              1.271              0.682
 Vibration    34          0.854              1.253              0.661
 Vibration    35          0.867              1.223              0.628
 Vibration    36          0.888              1.177              0.580
 Vibration    37          0.903              1.145              0.549
 Vibration    38          0.905              1.140              0.544
 Vibration    39          0.925              1.099              0.507
 Vibration    40          0.952              1.044              0.460
 Vibration    41          0.966              1.016              0.437
 Vibration    42          0.971              1.007              0.430

 Normal termination of Gaussian 09 at Mon Dec 30 11:07:36 2013.
