 Gaussian 09, Revision C.01,
 Gaussian 09:  EM64L-G09RevC.01 23-Sep-2011

 --------------------------------------------
 #B3LYP/6-31++G(d,p) opt scf=direct freq test
 --------------------------------------------

 Geom opt of No.37 candidate from the CEPDB database with SMILE code of
  C1C(=Cc2c1c1c3nsnc3c3C=C[SiH2]c3c1c1nsnc21)c1scc2[SiH2]C=Cc12, HPC, 2
 0131227, Shuo Dai, Gaussian09
 ----------------------------------------------------------------------
 Charge =  0 Multiplicity = 1

 SCF Done:  E(RB3LYP) =  -2799.42656176     A.U. after   28 cycles
 SCF Done:  E(RB3LYP) =  -2799.51261929     A.U. after   25 cycles
 SCF Done:  E(RB3LYP) =  -2799.62976856     A.U. after   24 cycles
 SCF Done:  E(RB3LYP) =  -2799.66761021     A.U. after   25 cycles
 SCF Done:  E(RB3LYP) =  -2799.75258581     A.U. after   18 cycles
 SCF Done:  E(RB3LYP) =  -2799.84693888     A.U. after   24 cycles
 SCF Done:  E(RB3LYP) =  -2799.92788102     A.U. after   19 cycles
 SCF Done:  E(RB3LYP) =  -2799.99436898     A.U. after   19 cycles
 SCF Done:  E(RB3LYP) =  -2800.01238626     A.U. after   18 cycles
 SCF Done:  E(RB3LYP) =  -2800.02103170     A.U. after   15 cycles
 SCF Done:  E(RB3LYP) =  -2800.02915352     A.U. after   14 cycles
 SCF Done:  E(RB3LYP) =  -2800.02924987     A.U. after   16 cycles
 SCF Done:  E(RB3LYP) =  -2800.02942177     A.U. after   16 cycles
 SCF Done:  E(RB3LYP) =  -2800.02943416     A.U. after   12 cycles
 SCF Done:  E(RB3LYP) =  -2800.02945541     A.U. after   12 cycles
 SCF Done:  E(RB3LYP) =  -2800.02945786     A.U. after   10 cycles
 SCF Done:  E(RB3LYP) =  -2800.02945873     A.U. after   10 cycles
 SCF Done:  E(RB3LYP) =  -2800.02945900     A.U. after   10 cycles
 SCF Done:  E(RB3LYP) =  -2800.02945909     A.U. after    9 cycles
 Optimization completed.
    -- Stationary point found.
 Normal termination of Gaussian 09 at Sun Dec 29 10:16:01 2013.

 ----------------------------------------------------------------------
 #N Geom=AllCheck Guess=TCheck SCRF=Check Test GenChk RB3LYP/6-31++G(d,
 p) Freq
 ----------------------------------------------------------------------

 Geom opt of No.37 candidate from the CEPDB database with SMILE code of
  C1C(=Cc2c1c1c3nsnc3c3C=C[SiH2]c3c1c1nsnc21)c1scc2[SiH2]C=Cc12, HPC, 2
 0131227, Shuo Dai, Gaussian09
 ----------------------------------------------------------------------
 Charge =  0 Multiplicity = 1

                         Standard orientation:
 ---------------------------------------------------------------------
 Center     Atomic      Atomic             Coordinates (Angstroms)
 Number     Number       Type             X           Y           Z
 ---------------------------------------------------------------------
      1          6           0       -1.283811    0.297688   -0.000136
      2          6           0       -2.191697   -0.920805   -0.000018
      3          6           0       -1.412971   -2.048477   -0.000091
      4          6           0       -0.019239   -1.674230   -0.000096
      5          6           0        0.104977   -0.289818   -0.000021
      6          6           0        1.365860    0.376761    0.000055
      7          6           0        1.503689    1.814451    0.000223
      8          7           0        0.497951    2.694264    0.000467
      9         16           0        1.177034    4.197332    0.000527
     10          7           0        2.768429    3.777898    0.000269
     11          6           0        2.813583    2.442116    0.000129
     12          6           0        3.999383    1.639042   -0.000066
     13          6           0        5.374499    2.170548    0.000020
     14          6           0        6.372937    1.257468   -0.000136
     15         14           0        5.613667   -0.465575   -0.000031
     16          1           0        5.950508   -1.243681   -1.216118
     17          1           0        5.949872   -1.242910    1.216757
     18          6           0        3.860344    0.257129   -0.000153
     19          6           0        2.576804   -0.369220   -0.000116
     20          6           0        2.454983   -1.808197   -0.000213
     21          7           0        3.484069   -2.657731   -0.000380
     22         16           0        2.849777   -4.179885   -0.000294
     23          7           0        1.244326   -3.804174   -0.000103
     24          6           0        1.166594   -2.471756   -0.000131
     25          6           0       -3.634619   -0.857842    0.000144
     26         16           0       -4.574858   -2.354389    0.001069
     27          6           0       -6.082491   -1.485688    0.000683
     28          6           0       -5.901832   -0.134861   -0.000046
     29         14           0       -6.910816    1.448683   -0.000416
     30          1           0       -7.764579    1.627676    1.203233
     31          1           0       -7.764739    1.627109   -1.204041
     32          6           0       -5.345593    2.488449   -0.001005
     33          6           0       -4.254259    1.681794   -0.000947
     34          6           0       -4.499392    0.232099   -0.000343
     35          1           0       -1.447432    0.938197    0.874287
     36          1           0       -1.447399    0.937498   -0.875125
     37          1           0       -1.761557   -3.074007   -0.000186
     38          1           0        5.522842    3.247659    0.000275
     39          1           0        7.415819    1.558019   -0.000045
     40          1           0       -7.008433   -2.046674    0.001088
     41          1           0       -5.242074    3.569025   -0.001470
     42          1           0       -3.243897    2.077954   -0.001425
 ---------------------------------------------------------------------

 SCF Done:  E(RB3LYP) =  -2800.02945909     A.U. after    2 cycles

 The electronic state is 1-A.
 Alpha  occ. eigenvalues --  -88.98852 -88.98740 -88.92215 -66.14345 -66.13979
 Alpha  occ. eigenvalues --  -14.38884 -14.38817 -14.38742 -14.38665 -10.26320
 Alpha  occ. eigenvalues --  -10.25977 -10.25943 -10.25937 -10.24266 -10.23698
 Alpha  occ. eigenvalues --  -10.23618 -10.23497 -10.22806 -10.22618 -10.22561
 Alpha  occ. eigenvalues --  -10.22358 -10.22011 -10.21902 -10.21587 -10.21318
 Alpha  occ. eigenvalues --  -10.21034 -10.20712 -10.19582 -10.19373 -10.18841
 Alpha  occ. eigenvalues --   -8.04175  -8.04054  -7.98142  -6.00746  -6.00627
 Alpha  occ. eigenvalues --   -6.00164  -6.00046  -5.99903  -5.99775  -5.94581
 Alpha  occ. eigenvalues --   -5.94191  -5.93837  -5.29096  -5.28660  -3.64992
 Alpha  occ. eigenvalues --   -3.64930  -3.64923  -3.64564  -3.64506  -3.64476
 Alpha  occ. eigenvalues --   -1.03421  -1.03288  -0.91535  -0.90992  -0.90595
 Alpha  occ. eigenvalues --   -0.89569  -0.87205  -0.83352  -0.81282  -0.80721
 Alpha  occ. eigenvalues --   -0.77806  -0.76908  -0.74599  -0.72837  -0.71796
 Alpha  occ. eigenvalues --   -0.70932  -0.67017  -0.65773  -0.63590  -0.62797
 Alpha  occ. eigenvalues --   -0.61347  -0.59946  -0.59584  -0.58020  -0.56016
 Alpha  occ. eigenvalues --   -0.54891  -0.53320  -0.53009  -0.52264  -0.50985
 Alpha  occ. eigenvalues --   -0.50817  -0.49818  -0.47872  -0.47371  -0.46952
 Alpha  occ. eigenvalues --   -0.46229  -0.45719  -0.43736  -0.43311  -0.42838
 Alpha  occ. eigenvalues --   -0.41422  -0.41188  -0.41141  -0.40784  -0.40007
 Alpha  occ. eigenvalues --   -0.39701  -0.39493  -0.39190  -0.38296  -0.37193
 Alpha  occ. eigenvalues --   -0.36266  -0.35962  -0.35583  -0.35290  -0.34784
 Alpha  occ. eigenvalues --   -0.34178  -0.33665  -0.32870  -0.32854  -0.32815
 Alpha  occ. eigenvalues --   -0.31642  -0.31535  -0.31512  -0.30898  -0.30763
 Alpha  occ. eigenvalues --   -0.29641  -0.27931  -0.26308  -0.24931  -0.23956
 Alpha  occ. eigenvalues --   -0.20144
 Alpha virt. eigenvalues --   -0.11816  -0.08331  -0.07673  -0.05597  -0.03881
 Alpha virt. eigenvalues --   -0.02226  -0.01830  -0.01354  -0.01054  -0.00872
 Alpha virt. eigenvalues --   -0.00320  -0.00217   0.00118   0.00482   0.00896

 Mulliken atomic charges:
              1
     1  C   -0.967746
     2  C    1.103168
     3  C   -0.490377
     4  C   -0.158310
     5  C   -0.480167
     6  C   -0.016087
     7  C    0.128227
     8  N   -0.483011
     9  S    0.886972
    10  N   -0.389794
    11  C    0.208121
    12  C   -0.226424
    13  C    0.541896
    14  C   -0.643930
    15  Si   0.804638
    16  H   -0.082536
    17  H   -0.082473
    18  C   -0.728806
    19  C   -0.021395
    20  C   -0.210830
    21  N   -0.423861
    22  S    0.904534
    23  N   -0.415421
    24  C    0.023873
    25  C    0.410000
    26  S   -0.021276
    27  C    0.075971
    28  C   -0.525278
    29  Si   0.830363
    30  H   -0.096489
    31  H   -0.096489
    32  C   -0.362759
    33  C   -0.017279
    34  C   -0.138096
    35  H    0.196924
    36  H    0.196829
    37  H    0.111170
    38  H    0.164708
    39  H    0.136117
    40  H    0.187903
    41  H    0.136215
    42  H    0.031205
 Sum of Mulliken atomic charges =  -0.00000

 Dipole moment (field-independent basis, Debye):
    X=             -1.0833    Y=              0.7200    Z=             -0.0004  Tot=              1.3007
 Quadrupole moment (field-independent basis, Debye-Ang):
   XX=           -195.7347   YY=           -204.2856   ZZ=           -212.7666
   XY=             -3.2436   XZ=             -0.0020   YZ=             -0.0018

  Exact polarizability: 749.731 -22.763 500.116  -0.003  -0.013 188.021
 Approx polarizability:1141.365 -46.747 965.929  -0.022  -0.035 319.448

                     1                      2                      3
                     A                      A                      A
 Frequencies --    19.2006                24.8940                45.7753
 Red. masses --     8.8025                 7.5223                 8.7806
 Frc consts  --     0.0019                 0.0027                 0.0108
 IR Inten    --     0.0397                 0.0761                 0.0856

                     4                      5                      6
                     A                      A                      A
 Frequencies --    51.0242                79.8356                97.1013
 Red. masses --     7.1849                 6.7035                 4.8192
 Frc consts  --     0.0110                 0.0252                 0.0268
 IR Inten    --     0.0075                 0.0633                 0.0162

                     7                      8                      9
                     A                      A                      A
 Frequencies --   103.8745               120.3203               148.5644
 Red. masses --     5.7443                 9.5719                 4.1439
 Frc consts  --     0.0365                 0.0816                 0.0539
 IR Inten    --     0.0119                 0.9639                 0.6642

                    10                     11                     12
                     A                      A                      A
 Frequencies --   153.0827               166.7247               168.3659
 Red. masses --    11.5691                10.3926                 5.4150
 Frc consts  --     0.1597                 0.1702                 0.0904
 IR Inten    --     0.0258                 1.9734                 0.4044

                    13                     14                     15
                     A                      A                      A
 Frequencies --   175.4615               201.9842               221.0691
 Red. masses --     4.8631                 4.7850                 5.6078
 Frc consts  --     0.0882                 0.1150                 0.1615
 IR Inten    --     0.5023                 0.0017                 0.6021

                    16                     17                     18
                     A                      A                      A
 Frequencies --   229.1772               267.9467               283.7959
 Red. masses --    10.3610                 4.7826                11.0956
 Frc consts  --     0.3206                 0.2023                 0.5265
 IR Inten    --     0.7926                 0.6095                 2.8151

                    19                     20                     21
                     A                      A                      A
 Frequencies --   295.8215               325.9050               328.1105
 Red. masses --     4.1890                 2.4749                 6.1711
 Frc consts  --     0.2160                 0.1549                 0.3914
 IR Inten    --     2.3027                 0.1804                 4.3234

                    22                     23                     24
                     A                      A                      A
 Frequencies --   354.0850               361.7426               363.0809
 Red. masses --    11.5480                 2.2184                 4.7139
 Frc consts  --     0.8530                 0.1710                 0.3661
 IR Inten    --     4.8417                 3.0557                 1.5506

                    25                     26                     27
                     A                      A                      A
 Frequencies --   373.5335               389.1769               424.6074
 Red. masses --     7.9722                 8.2006                 3.4177
 Frc consts  --     0.6554                 0.7318                 0.3630
 IR Inten    --     3.3021                 1.9115                 0.7062

                    28                     29                     30
                     A                      A                      A
 Frequencies --   458.9017               465.5777               470.4532
 Red. masses --     3.5675                10.5178                 8.3320
 Frc consts  --     0.4426                 1.3433                 1.0865
 IR Inten    --     8.8729                12.6770                 1.1865

                    31                     32                     33
                     A                      A                      A
 Frequencies --   498.5284               501.1383               509.3858
 Red. masses --     7.5910                 8.0997                 7.4298
 Frc consts  --     1.1115                 1.1985                 1.1359
 IR Inten    --     4.2923                29.9019                 0.1975

                    34                     35                     36
                     A                      A                      A
 Frequencies --   525.1429               536.6185               538.8030
 Red. masses --     4.3330                 8.3619                 3.1641
 Frc consts  --     0.7040                 1.4187                 0.5412
 IR Inten    --     1.4619                 5.4147                 2.1384

                    37                     38                     39
                     A                      A                      A
 Frequencies --   578.7705               591.1949               600.5033
 Red. masses --     9.4546                 2.3599                 1.5998
 Frc consts  --     1.8660                 0.4860                 0.3399
 IR Inten    --    41.9027                48.9775                 0.5954

                    40                     41                     42
                     A                      A                      A
 Frequencies --   604.3016               620.5246               657.1775
 Red. masses --     1.8830                 1.7640                10.3505
 Frc consts  --     0.4051                 0.4002                 2.6338
 IR Inten    --     3.4843                48.7848                 1.8929

                    43                     44                     45
                     A                      A                      A
 Frequencies --   669.2770               670.0114               700.8181
 Red. masses --     7.5555                 4.5617                 5.9714
 Frc consts  --     1.9940                 1.2065                 1.7280
 IR Inten    --     4.1943                 7.2058                 2.6938

                    46                     47                     48
                     A                      A                      A
 Frequencies --   706.0481               715.8954               722.1207
 Red. masses --     7.9098                 5.7761                 1.5689
 Frc consts  --     2.3232                 1.7441                 0.4820
 IR Inten    --    16.6990                 6.0384                19.1290

                    49                     50                     51
                     A                      A                      A
 Frequencies --   723.8962               725.3902               730.0648
 Red. masses --     1.7730                 1.9081                 2.1963
 Frc consts  --     0.5474                 0.5916                 0.6897
 IR Inten    --     3.3685                11.0095                 0.1878

                    52                     53                     54
                     A                      A                      A
 Frequencies --   761.0028               765.4198               783.7522
 Red. masses --     5.3139                 2.2769                 1.8846
 Frc consts  --     1.8132                 0.7859                 0.6821
 IR Inten    --     5.7142                31.0466                 4.7136

                    55                     56                     57
                     A                      A                      A
 Frequencies --   784.2859               787.0454               791.2789
 Red. masses --     2.0762                 5.5181                 1.7393
 Frc consts  --     0.7524                 2.0139                 0.6416
 IR Inten    --    14.6332                25.3240                50.3494

                    58                     59                     60
                     A                      A                      A
 Frequencies --   803.3431               818.1515               823.3113
 Red. masses --     6.0907                 4.5300                13.6485
 Frc consts  --     2.3159                 1.7866                 5.4508
 IR Inten    --     0.2537                16.5319                47.2508

                    61                     62                     63
                     A                      A                      A
 Frequencies --   826.1446               829.6103               833.4921
 Red. masses --     7.8535                13.5868                 6.2482
 Frc consts  --     3.1581                 5.5095                 2.5575
 IR Inten    --    28.4855                17.0612                31.7450

                    64                     65                     66
                     A                      A                      A
 Frequencies --   857.8526               872.4077               880.8389
 Red. masses --     2.3405                 3.8944                 5.3630
 Frc consts  --     1.0148                 1.7463                 2.4516
 IR Inten    --    60.7667                67.7124                62.4623

                    67                     68                     69
                     A                      A                      A
 Frequencies --   885.8854               888.6775               916.6910
 Red. masses --     1.6673                 6.8079                 6.6428
 Frc consts  --     0.7709                 3.1678                 3.2889
 IR Inten    --    18.4506                13.4309                32.7344

                    70                     71                     72
                     A                      A                      A
 Frequencies --   924.6915               927.7466               940.9139
 Red. masses --     4.4094                 2.1899                 1.0907
 Frc consts  --     2.2214                 1.1105                 0.5689
 IR Inten    --     1.7966                 1.6182               119.1544

                    73                     74                     75
                     A                      A                      A
 Frequencies --   972.5336               996.1892              1005.1565
 Red. masses --     1.0553                 1.2877                 1.2933
 Frc consts  --     0.5881                 0.7529                 0.7699
 IR Inten    --   293.9413                 0.2654                 1.1643

                    76                     77                     78
                     A                      A                      A
 Frequencies --  1008.8852              1041.3643              1066.8328
 Red. masses --     3.3155                 4.1458                 4.7877
 Frc consts  --     1.9883                 2.6489                 3.2105
 IR Inten    --     4.6656                11.6800                 1.8736

                    79                     80                     81
                     A                      A                      A
 Frequencies --  1117.0342              1119.7614              1152.0926
 Red. masses --     1.2049                 1.3419                 4.5364
 Frc consts  --     0.8858                 0.9913                 3.5476
 IR Inten    --    15.4608                 9.5121                 7.2633

                    82                     83                     84
                     A                      A                      A
 Frequencies --  1154.3395              1189.0288              1198.8618
 Red. masses --     1.1225                 2.2491                 1.7600
 Frc consts  --     0.8812                 1.8735                 1.4904
 IR Inten    --     0.0251                10.8363                13.1838

                    85                     86                     87
                     A                      A                      A
 Frequencies --  1232.9029              1268.0094              1280.6782
 Red. masses --     2.1647                 3.3180                 2.9174
 Frc consts  --     1.9387                 3.1432                 2.8192
 IR Inten    --    19.1076                88.2299                 6.6562

                    88                     89                     90
                     A                      A                      A
 Frequencies --  1313.6009              1333.0220              1343.8757
 Red. masses --     3.4235                 2.3975                 2.4167
 Frc consts  --     3.4805                 2.5100                 2.5715
 IR Inten    --     8.7004                 5.2345                26.7267

                    91                     92                     93
                     A                      A                      A
 Frequencies --  1347.8058              1354.1567              1372.2414
 Red. masses --     7.1788                 3.9754                 3.8430
 Frc consts  --     7.6835                 4.2950                 4.2636
 IR Inten    --    22.1930                19.2980                 0.8875

                    94                     95                     96
                     A                      A                      A
 Frequencies --  1396.8874              1406.9363              1424.8844
 Red. masses --     9.6585                 6.0485                 1.3037
 Frc consts  --    11.1041                 7.0541                 1.5595
 IR Inten    --    42.0308                24.3304                 3.2765

                    97                     98                     99
                     A                      A                      A
 Frequencies --  1428.5034              1452.3522              1468.9121
 Red. masses --     8.6565                 9.9639                 7.0650
 Frc consts  --    10.4077                12.3830                 8.9817
 IR Inten    --     6.3630                 6.7004                 5.5676

                   100                    101                    102
                     A                      A                      A
 Frequencies --  1497.2476              1515.7755              1537.0841
 Red. masses --     8.9213                 9.6820                 9.0000
 Frc consts  --    11.7832                13.1065                12.5282
 IR Inten    --    75.4093                41.9459               132.7148

                   103                    104                    105
                     A                      A                      A
 Frequencies --  1549.5681              1555.3066              1580.1673
 Red. masses --     8.8899                11.0467                 6.7848
 Frc consts  --    12.5767                15.7440                 9.9814
 IR Inten    --    41.1461                 8.4529                43.2902

                   106                    107                    108
                     A                      A                      A
 Frequencies --  1590.4721              1596.3029              1615.0472
 Red. masses --     9.1914                 6.7568                 8.1961
 Frc consts  --    13.6988                10.1443                12.5959
 IR Inten    --     3.7042                27.4510                31.0483

                   109                    110                    111
                     A                      A                      A
 Frequencies --  2226.5201              2230.0555              2245.3113
 Red. masses --     1.0518                 1.0301                 1.0293
 Frc consts  --     3.0720                 3.0182                 3.0573
 IR Inten    --   125.8116               317.4170               120.5503

                   112                    113                    114
                     A                      A                      A
 Frequencies --  2249.5854              3061.0769              3093.8225
 Red. masses --     1.0528                 1.0616                 1.0999
 Frc consts  --     3.1390                 5.8608                 6.2028
 IR Inten    --    97.2180                 2.1469                 0.4200

                   115                    116                    117
                     A                      A                      A
 Frequencies --  3183.4485              3197.3106              3210.4611
 Red. masses --     1.0874                 1.0856                 1.0966
 Frc consts  --     6.4926                 6.5389                 6.6593
 IR Inten    --     7.0930                 0.1640                11.2266

                   118                    119                    120
                     A                      A                      A
 Frequencies --  3217.3406              3236.2461              3246.4874
 Red. masses --     1.0963                 1.0948                 1.0941
 Frc consts  --     6.6860                 6.7557                 6.7942
 IR Inten    --     7.7820                16.8451                 0.8126

 - Thermochemistry -
 -------------------
 Temperature   298.150 Kelvin.  Pressure   1.00000 Atm.
 Atom     1 has atomic number  6 and mass  12.00000

 Molecular mass:   471.97627 amu.
 Principal axes and moments of inertia in atomic units:
                           1         2         3
     Eigenvalues --  9301.15764********************
           X            0.99999  -0.00407   0.00000
           Y            0.00407   0.99999  -0.00000
           Z           -0.00000   0.00000   1.00000
 This molecule is an asymmetric top.
 Rotational symmetry number  1.
 Warning -- assumption of classical behavior for rotation
           may cause significant error
 Rotational temperatures (Kelvin)      0.00931     0.00331     0.00245
 Rotational constants (GHZ):           0.19403     0.06906     0.05101
 Zero-point vibrational energy     717034.7 (Joules/Mol)
                                  171.37540 (Kcal/Mol)
 Warning -- explicit consideration of  41 degrees of freedom as
           vibrations may cause significant error
 Vibrational temperatures:     27.63    35.82    65.86    73.41   114.87
          (Kelvin)            139.71   149.45   173.11   213.75   220.25
                              239.88   242.24   252.45   290.61   318.07
                              329.73   385.52   408.32   425.62   468.90
                              472.08   509.45   520.47   522.39   537.43
                              559.94   610.91   660.26   669.86   676.88
                              717.27   721.03   732.89   755.56   772.07
                              775.22   832.72   850.60   863.99   869.45
                              892.80   945.53   962.94   964.00  1008.32
                             1015.84  1030.01  1038.97  1041.52  1043.67
                             1050.40  1094.91  1101.27  1127.64  1128.41
                             1132.38  1138.47  1155.83  1177.14  1184.56
                             1188.64  1193.62  1199.21  1234.26  1255.20
                             1267.33  1274.59  1278.61  1318.91  1330.42
                             1334.82  1353.76  1399.26  1433.29  1446.19
                             1451.56  1498.29  1534.93  1607.16  1611.08
                             1657.60  1660.84  1710.75  1724.89  1773.87
                             1824.38  1842.61  1889.98  1917.92  1933.53
                             1939.19  1948.33  1974.35  2009.81  2024.26
                             2050.09  2055.30  2089.61  2113.43  2154.20
                             2180.86  2211.52  2229.48  2237.74  2273.51
                             2288.33  2296.72  2323.69  3203.46  3208.55
                             3230.50  3236.65  4404.20  4451.31  4580.27
                             4600.21  4619.13  4629.03  4656.23  4670.97

 Zero-point correction=                           0.273104 (Hartree/Particle)
 Thermal correction to Energy=                    0.297032
 Thermal correction to Enthalpy=                  0.297976
 Thermal correction to Gibbs Free Energy=         0.218833
 Sum of electronic and zero-point Energies=          -2799.756355
 Sum of electronic and thermal Energies=             -2799.732427
 Sum of electronic and thermal Enthalpies=           -2799.731483
 Sum of electronic and thermal Free Energies=        -2799.810626

                     E (Thermal)             CV                S
                      KCal/Mol        Cal/Mol-Kelvin    Cal/Mol-Kelvin
 Total                  186.390             97.037            166.571
 Electronic               0.000              0.000              0.000
 Translational            0.889              2.981             44.344
 Rotational               0.889              2.981             37.395
 Vibrational            184.613             91.075             84.833
 Vibration     1          0.593              1.986              6.715
 Vibration     2          0.593              1.985              6.200
 Vibration     3          0.595              1.979              4.992
 Vibration     4          0.595              1.977              4.777
 Vibration     5          0.600              1.963              3.895
 Vibration     6          0.603              1.951              3.512
 Vibration     7          0.605              1.946              3.380
 Vibration     8          0.609              1.932              3.095
 Vibration     9          0.618              1.904              2.691
 Vibration    10          0.619              1.899              2.634
 Vibration    11          0.624              1.883              2.472
 Vibration    12          0.625              1.881              2.454
 Vibration    13          0.627              1.873              2.376
 Vibration    14          0.639              1.837              2.115
 Vibration    15          0.648              1.809              1.950
 Vibration    16          0.652              1.796              1.885
 Vibration    17          0.673              1.732              1.609
 Vibration    18          0.682              1.704              1.511
 Vibration    19          0.690              1.682              1.440
 Vibration    20          0.710              1.624              1.280
 Vibration    21          0.711              1.619              1.269
 Vibration    22          0.730              1.567              1.148
 Vibration    23          0.736              1.551              1.115
 Vibration    24          0.737              1.548              1.109
 Vibration    25          0.745              1.526              1.065
 Vibration    26          0.757              1.493              1.003
 Vibration    27          0.787              1.417              0.876
 Vibration    28          0.817              1.341              0.769
 Vibration    29          0.823              1.326              0.750
 Vibration    30          0.827              1.316              0.736
 Vibration    31          0.854              1.253              0.662
 Vibration    32          0.857              1.247              0.655
 Vibration    33          0.865              1.229              0.635
 Vibration    34          0.880              1.194              0.598
 Vibration    35          0.892              1.169              0.573
 Vibration    36          0.894              1.164              0.568
 Vibration    37          0.935              1.077              0.488
 Vibration    38          0.949              1.051              0.465
 Vibration    39          0.959              1.031              0.449
 Vibration    40          0.963              1.023              0.442
 Vibration    41          0.981              0.989              0.416

 Normal termination of Gaussian 09 at Sun Dec 29 12:08:32 2013.
