 Gaussian 09, Revision C.01,
 Gaussian 09:  EM64L-G09RevC.01 23-Sep-2011

 --------------------------------------------
 #B3LYP/6-31++G(d,p) opt scf=direct freq test
 --------------------------------------------

 Geom opt of No.16 candidate from the CEPDB database with SMILE code of
  C1C=Cc2csc(c12)-c1cc2c3nsnc3c3c4[SiH2]C=Cc4c4=C[SiH2]C=c4c3c2cn1, HPC
 , 20131227, Shuo Dai, Gaussian09
 ----------------------------------------------------------------------
 Charge =  0 Multiplicity = 1

 SCF Done:  E(RB3LYP) =  -2462.26200652     A.U. after   25 cycles
 SCF Done:  E(RB3LYP) =  -2462.37507938     A.U. after   19 cycles
 SCF Done:  E(RB3LYP) =  -2462.53060674     A.U. after   23 cycles
 SCF Done:  E(RB3LYP) =  -2462.58747687     A.U. after   23 cycles
 SCF Done:  E(RB3LYP) =  -2462.69250882     A.U. after   25 cycles
 SCF Done:  E(RB3LYP) =  -2462.79170912     A.U. after   25 cycles
 SCF Done:  E(RB3LYP) =  -2462.83685948     A.U. after   24 cycles
 SCF Done:  E(RB3LYP) =  -2462.88408854     A.U. after   23 cycles
 SCF Done:  E(RB3LYP) =  -2462.97561234     A.U. after   25 cycles
 SCF Done:  E(RB3LYP) =  -2463.02075568     A.U. after   19 cycles
 SCF Done:  E(RB3LYP) =  -2463.08623285     A.U. after   16 cycles
 SCF Done:  E(RB3LYP) =  -2463.08662740     A.U. after   14 cycles
 SCF Done:  E(RB3LYP) =  -2463.08669713     A.U. after   15 cycles
 SCF Done:  E(RB3LYP) =  -2463.08673001     A.U. after   15 cycles
 SCF Done:  E(RB3LYP) =  -2463.08676038     A.U. after   15 cycles
 SCF Done:  E(RB3LYP) =  -2463.08676586     A.U. after   13 cycles
 SCF Done:  E(RB3LYP) =  -2463.08676761     A.U. after   12 cycles
 SCF Done:  E(RB3LYP) =  -2463.08676802     A.U. after   10 cycles
 SCF Done:  E(RB3LYP) =  -2463.08676807     A.U. after   12 cycles
 Optimization completed.
    -- Stationary point found.
 Normal termination of Gaussian 09 at Sun Dec 29 06:25:05 2013.

 ----------------------------------------------------------------------
 #N Geom=AllCheck Guess=TCheck SCRF=Check Test GenChk RB3LYP/6-31++G(d,
 p) Freq
 ----------------------------------------------------------------------

 Geom opt of No.16 candidate from the CEPDB database with SMILE code of
  C1C=Cc2csc(c12)-c1cc2c3nsnc3c3c4[SiH2]C=Cc4c4=C[SiH2]C=c4c3c2cn1, HPC
 , 20131227, Shuo Dai, Gaussian09
 ----------------------------------------------------------------------
 Charge =  0 Multiplicity = 1

                         Standard orientation:
 ---------------------------------------------------------------------
 Center     Atomic      Atomic             Coordinates (Angstroms)
 Number     Number       Type             X           Y           Z
 ---------------------------------------------------------------------
      1          6           0        5.207751    1.676908    0.379926
      2          6           0        6.711244    1.886097    0.460517
      3          6           0        7.390631    0.750791    0.189977
      4          6           0        6.436403   -0.321390   -0.091950
      5          6           0        6.457104   -1.654527   -0.417862
      6         16           0        4.848278   -2.282079   -0.595465
      7          6           0        4.123590   -0.716601   -0.222629
      8          6           0        5.111236    0.212303    0.018145
      9          6           0        2.672367   -0.595262   -0.201972
     10          6           0        2.016894    0.617626    0.031610
     11          6           0        0.620767    0.645688    0.081394
     12          6           0       -0.119081    1.882047    0.211565
     13          7           0        0.403678    3.090468    0.390570
     14         16           0       -0.860025    4.154615    0.398635
     15          7           0       -2.099302    3.086509    0.169476
     16          6           0       -1.552187    1.873235    0.084880
     17          6           0       -2.294916    0.641707   -0.047623
     18          6           0       -3.735573    0.697073   -0.215597
     19         14           0       -5.043434    2.124584   -0.352513
     20          1           0       -5.462063    2.552198    1.002688
     21          1           0       -4.677709    3.265012   -1.218797
     22          6           0       -6.216351    0.925105   -1.227822
     23          6           0       -5.897571   -0.096583   -0.340143
     24          6           0       -4.476631   -0.474998   -0.267688
     25          6           0       -3.871493   -1.762383    0.011329
     26          6           0       -4.553362   -2.930204    0.176540
     27         14           0       -3.338868   -4.216804    0.768926
     28          1           0       -3.156035   -5.381774   -0.136129
     29          1           0       -3.631682   -4.715378    2.138216
     30          6           0       -1.912197   -3.002182    0.694678
     31          6           0       -2.372861   -1.806005    0.225178
     32          6           0       -1.590235   -0.564504    0.022408
     33          6           0       -0.128361   -0.558216   -0.058233
     34          6           0        0.646382   -1.700563   -0.393018
     35          7           0        1.966743   -1.727067   -0.461235
     36          1           0        4.752112    2.330982   -0.377143
     37          1           0        4.712604    1.913083    1.332543
     38          1           0        7.154466    2.844826    0.705750
     39          1           0        8.469004    0.642436    0.182032
     40          1           0        7.307592   -2.307116   -0.564057
     41          1           0        2.562250    1.544577    0.152221
     42          1           0       -5.569969    0.797598   -2.117526
     43          1           0       -6.500404   -0.285640    0.555188
     44          1           0       -5.627416   -2.980126    0.033142
     45          1           0       -0.884497   -3.165735    0.987206
     46          1           0        0.152789   -2.624789   -0.669189
 ---------------------------------------------------------------------

 SCF Done:  E(RB3LYP) =  -2463.08676808     A.U. after    3 cycles

 The electronic state is 1-A.
 Alpha  occ. eigenvalues --  -88.99387 -88.91925 -66.15928 -66.14678 -14.39680
 Alpha  occ. eigenvalues --  -14.39421 -14.35588 -10.26862 -10.26782 -10.26054
 Alpha  occ. eigenvalues --  -10.24955 -10.24943 -10.24477 -10.24059 -10.23904
 Alpha  occ. eigenvalues --  -10.23864 -10.23503 -10.23436 -10.23394 -10.23172
 Alpha  occ. eigenvalues --  -10.22620 -10.22138 -10.21734 -10.21694 -10.21276
 Alpha  occ. eigenvalues --  -10.20902 -10.20821 -10.20785 -10.20228 -10.19893
 Alpha  occ. eigenvalues --  -10.17007  -8.04700  -7.97718  -6.01280  -6.00698
 Alpha  occ. eigenvalues --   -6.00405  -5.94162  -5.93765  -5.93433  -5.30210
 Alpha  occ. eigenvalues --   -5.29514  -3.66215  -3.66051  -3.65995  -3.65386
 Alpha  occ. eigenvalues --   -3.65354  -3.65341  -1.04198  -0.97120  -0.91885
 Alpha  occ. eigenvalues --   -0.90727  -0.90275  -0.87054  -0.84253  -0.83949
 Alpha  occ. eigenvalues --   -0.81713  -0.80402  -0.78633  -0.75962  -0.74670
 Alpha  occ. eigenvalues --   -0.72187  -0.71546  -0.69878  -0.68542  -0.67882
 Alpha  occ. eigenvalues --   -0.65349  -0.63618  -0.61701  -0.61204  -0.58821
 Alpha  occ. eigenvalues --   -0.57949  -0.55946  -0.55761  -0.55412  -0.53665
 Alpha  occ. eigenvalues --   -0.53578  -0.52515  -0.51113  -0.50667  -0.49574
 Alpha  occ. eigenvalues --   -0.49078  -0.47778  -0.47318  -0.45973  -0.45362
 Alpha  occ. eigenvalues --   -0.44687  -0.44323  -0.43378  -0.42961  -0.42628
 Alpha  occ. eigenvalues --   -0.41629  -0.41247  -0.40383  -0.39852  -0.39553
 Alpha  occ. eigenvalues --   -0.38849  -0.38431  -0.38374  -0.37590  -0.37357
 Alpha  occ. eigenvalues --   -0.36647  -0.35888  -0.35607  -0.34891  -0.34429
 Alpha  occ. eigenvalues --   -0.34043  -0.33824  -0.32960  -0.32381  -0.32259
 Alpha  occ. eigenvalues --   -0.31805  -0.30418  -0.30001  -0.28156  -0.28072
 Alpha  occ. eigenvalues --   -0.27423  -0.24476  -0.22811  -0.21312  -0.21275
 Alpha virt. eigenvalues --   -0.12478  -0.09631  -0.08495  -0.06466  -0.05517
 Alpha virt. eigenvalues --   -0.03361  -0.02283  -0.01568  -0.01237  -0.00717
 Alpha virt. eigenvalues --   -0.00506  -0.00025   0.00230   0.00476   0.00800

 Mulliken atomic charges:
              1
     1  C   -0.791716
     2  C   -0.085295
     3  C   -0.294075
     4  C   -0.445576
     5  C    0.083830
     6  S    0.183848
     7  C    0.151729
     8  C    0.453578
     9  C   -0.000054
    10  C   -0.364812
    11  C    0.440367
    12  C   -0.290709
    13  N   -0.344183
    14  S    0.939579
    15  N   -0.391505
    16  C    0.184178
    17  C    0.226608
    18  C   -1.502285
    19  Si   0.916235
    20  H   -0.105492
    21  H   -0.092062
    22  C   -0.938834
    23  C   -0.016747
    24  C    0.776900
    25  C    1.013701
    26  C   -0.848891
    27  Si   0.901417
    28  H   -0.091240
    29  H   -0.086427
    30  C   -0.751617
    31  C   -0.325500
    32  C   -0.205712
    33  C   -0.110785
    34  C    0.074833
    35  N   -0.026619
    36  H    0.158170
    37  H    0.170120
    38  H    0.141836
    39  H    0.104619
    40  H    0.169835
    41  H    0.225659
    42  H    0.168282
    43  H    0.202607
    44  H    0.110444
    45  H    0.133234
    46  H    0.178530
 Sum of Mulliken atomic charges =  -0.00000

 Dipole moment (field-independent basis, Debye):
    X=              3.2519    Y=             -0.0200    Z=              1.7552  Tot=              3.6954
 Quadrupole moment (field-independent basis, Debye-Ang):
   XX=           -215.6580   YY=           -199.3137   ZZ=           -213.4515
   XY=             17.5179   XZ=             -7.5396   YZ=              0.6674

  Exact polarizability: 695.898 -15.387 504.967  12.649   2.339 215.738
 Approx polarizability:1009.938 -63.247 941.482  27.828  15.592 374.999

                     1                      2                      3
                     A                      A                      A
 Frequencies --    18.3562                27.2229                46.4361
 Red. masses --     6.7564                 7.3940                 7.6368
 Frc consts  --     0.0013                 0.0032                 0.0097
 IR Inten    --     0.1512                 0.3460                 0.1370

                     4                      5                      6
                     A                      A                      A
 Frequencies --    51.3516                73.6812                83.1352
 Red. masses --     6.6576                 4.6205                 4.9060
 Frc consts  --     0.0103                 0.0148                 0.0200
 IR Inten    --     0.1147                 0.1416                 0.3160

                     7                      8                      9
                     A                      A                      A
 Frequencies --    98.3893               119.9523               124.5342
 Red. masses --     6.5844                 4.4716                 6.2911
 Frc consts  --     0.0376                 0.0379                 0.0575
 IR Inten    --     0.0403                 0.8151                 0.2918

                    10                     11                     12
                     A                      A                      A
 Frequencies --   142.6248               164.9947               177.8526
 Red. masses --     7.8595                 3.8217                10.2411
 Frc consts  --     0.0942                 0.0613                 0.1909
 IR Inten    --     1.0765                 0.1059                 0.2771

                    13                     14                     15
                     A                      A                      A
 Frequencies --   180.5389               201.5060               208.7098
 Red. masses --     4.8947                 5.9550                 6.0312
 Frc consts  --     0.0940                 0.1425                 0.1548
 IR Inten    --     0.4273                 1.5081                 0.9472

                    16                     17                     18
                     A                      A                      A
 Frequencies --   227.5366               239.1807               268.6879
 Red. masses --     4.1574                 4.2788                 6.1499
 Frc consts  --     0.1268                 0.1442                 0.2616
 IR Inten    --     7.3262                 0.1813                 7.5927

                    19                     20                     21
                     A                      A                      A
 Frequencies --   289.2820               303.7315               308.0742
 Red. masses --     4.0797                 4.2574                 3.4397
 Frc consts  --     0.2011                 0.2314                 0.1923
 IR Inten    --     7.1207                 1.3415                 5.4991

                    22                     23                     24
                     A                      A                      A
 Frequencies --   321.1822               334.0555               354.1135
 Red. masses --     6.2403                 6.6795                 6.0489
 Frc consts  --     0.3793                 0.4392                 0.4469
 IR Inten    --     3.3376                17.5256                16.0766

                    25                     26                     27
                     A                      A                      A
 Frequencies --   386.5091               392.3374               412.4123
 Red. masses --     5.7288                 4.3007                 5.6164
 Frc consts  --     0.5042                 0.3900                 0.5628
 IR Inten    --     1.7240                15.6594                 2.4862

                    28                     29                     30
                     A                      A                      A
 Frequencies --   422.6932               444.7144               462.8043
 Red. masses --     2.9185                 4.5641                 6.1890
 Frc consts  --     0.3072                 0.5318                 0.7810
 IR Inten    --     4.2433                11.8150                 4.9113

                    31                     32                     33
                     A                      A                      A
 Frequencies --   478.5635               483.8566               507.7555
 Red. masses --     4.0375                 5.8088                 6.8202
 Frc consts  --     0.5448                 0.8013                 1.0360
 IR Inten    --     9.2191                 5.6546                 3.1492

                    34                     35                     36
                     A                      A                      A
 Frequencies --   511.5669               524.7220               535.0854
 Red. masses --     9.9420                 7.8898                 3.7899
 Frc consts  --     1.5329                 1.2799                 0.6393
 IR Inten    --     6.2322                22.7521                 9.5903

                    37                     38                     39
                     A                      A                      A
 Frequencies --   560.0118               568.5879               572.9940
 Red. masses --     1.8042                 4.4750                 2.1390
 Frc consts  --     0.3334                 0.8524                 0.4138
 IR Inten    --    21.8639                 4.7447                10.4568

                    40                     41                     42
                     A                      A                      A
 Frequencies --   622.0244               631.0177               637.9507
 Red. masses --     1.8897                 1.9821                 3.6128
 Frc consts  --     0.4308                 0.4650                 0.8663
 IR Inten    --    24.2495                31.6676                66.4612

                    43                     44                     45
                     A                      A                      A
 Frequencies --   661.0621               665.5832               670.8543
 Red. masses --     3.5863                 3.9937                 4.3937
 Frc consts  --     0.9234                 1.0424                 1.1650
 IR Inten    --    22.0228                13.2835                 7.8489

                    46                     47                     48
                     A                      A                      A
 Frequencies --   675.5678               680.6782               689.1478
 Red. masses --     4.2208                 3.8757                 3.2777
 Frc consts  --     1.1350                 1.0580                 0.9172
 IR Inten    --     5.8283                 7.7234                21.2995

                    49                     50                     51
                     A                      A                      A
 Frequencies --   709.6223               714.8069               722.7982
 Red. masses --     4.1147                 1.6492                 1.4054
 Frc consts  --     1.2208                 0.4965                 0.4326
 IR Inten    --    19.9083                 3.5445                 1.0287

                    52                     53                     54
                     A                      A                      A
 Frequencies --   725.4513               731.0829               753.4830
 Red. masses --     1.4610                 5.7246                 2.7062
 Frc consts  --     0.4530                 1.8027                 0.9052
 IR Inten    --    14.8076                 2.3952                 6.3129

                    55                     56                     57
                     A                      A                      A
 Frequencies --   767.9277               776.9033               781.9604
 Red. masses --     2.7613                 1.9584                 1.6731
 Frc consts  --     0.9594                 0.6964                 0.6028
 IR Inten    --     4.4525                39.6083                84.8764

                    58                     59                     60
                     A                      A                      A
 Frequencies --   782.3919               788.4059               796.9022
 Red. masses --     3.2035                 2.1083                 4.4271
 Frc consts  --     1.1554                 0.7721                 1.6564
 IR Inten    --     3.6858                 3.8563                 4.2573

                    61                     62                     63
                     A                      A                      A
 Frequencies --   804.9120               811.9267               818.9266
 Red. masses --     3.8891                 4.3660                 6.9830
 Frc consts  --     1.4846                 1.6958                 2.7592
 IR Inten    --    29.4946                11.2453                20.7213

                    64                     65                     66
                     A                      A                      A
 Frequencies --   825.5546               834.9697               842.2656
 Red. masses --     5.9424                 4.0398                 3.8588
 Frc consts  --     2.3862                 1.6594                 1.6129
 IR Inten    --    38.0587                16.8421                13.6764

                    67                     68                     69
                     A                      A                      A
 Frequencies --   846.6893               862.4625               884.0564
 Red. masses --     4.5693                 2.3937                 2.1890
 Frc consts  --     1.9299                 1.0491                 1.0080
 IR Inten    --    30.1521                41.3972                47.7592

                    70                     71                     72
                     A                      A                      A
 Frequencies --   908.8486               916.2929               933.4180
 Red. masses --     1.6072                 4.8897                 2.1278
 Frc consts  --     0.7822                 2.4188                 1.0923
 IR Inten    --    10.1588                 1.9881                36.7620

                    73                     74                     75
                     A                      A                      A
 Frequencies --   940.9644               947.1486               949.7093
 Red. masses --     1.3496                 1.5350                 1.6302
 Frc consts  --     0.7040                 0.8113                 0.8663
 IR Inten    --   161.7087                43.7719                18.7283

                    76                     77                     78
                     A                      A                      A
 Frequencies --   951.9340               961.8932               977.9580
 Red. masses --     1.6700                 1.4637                 1.4476
 Frc consts  --     0.8916                 0.7979                 0.8157
 IR Inten    --   112.9521                 0.0217                10.8142

                    79                     80                     81
                     A                      A                      A
 Frequencies --   992.2078              1022.8055              1034.0335
 Red. masses --     4.7865                 1.9509                 1.9244
 Frc consts  --     2.7763                 1.2025                 1.2123
 IR Inten    --     4.7140                46.2363                17.6011

                    82                     83                     84
                     A                      A                      A
 Frequencies --  1075.2789              1077.2242              1103.1466
 Red. masses --     3.5789                 3.0058                 2.3673
 Frc consts  --     2.4381                 2.0550                 1.6973
 IR Inten    --     0.7517                 3.9380                 2.1250

                    85                     86                     87
                     A                      A                      A
 Frequencies --  1135.9007              1155.3911              1175.9581
 Red. masses --     1.4183                 1.1192                 1.7935
 Frc consts  --     1.0782                 0.8803                 1.4613
 IR Inten    --     9.9345                 0.6093                 4.6556

                    88                     89                     90
                     A                      A                      A
 Frequencies --  1189.1494              1189.1680              1208.9561
 Red. masses --     1.4290                 1.3053                 2.7313
 Frc consts  --     1.1905                 1.0875                 2.3520
 IR Inten    --     8.2323                 5.8842                 6.7439

                    91                     92                     93
                     A                      A                      A
 Frequencies --  1236.9769              1250.4455              1269.3464
 Red. masses --     2.3590                 6.0028                 1.8310
 Frc consts  --     2.1267                 5.5301                 1.7382
 IR Inten    --    63.4415                 1.2550                10.5560

                    94                     95                     96
                     A                      A                      A
 Frequencies --  1290.1664              1292.7715              1298.8280
 Red. masses --     2.2724                 1.9210                 2.5774
 Frc consts  --     2.2285                 1.8916                 2.5618
 IR Inten    --    22.1977                16.4948                14.3706

                    97                     98                     99
                     A                      A                      A
 Frequencies --  1341.8475              1352.3341              1363.5845
 Red. masses --     2.5538                 1.9265                 5.7722
 Frc consts  --     2.7092                 2.0758                 6.3235
 IR Inten    --    19.1890                25.0625                44.7196

                   100                    101                    102
                     A                      A                      A
 Frequencies --  1368.1520              1385.6887              1389.0932
 Red. masses --     6.9491                 7.1751                 4.8584
 Frc consts  --     7.6639                 8.1173                 5.5234
 IR Inten    --     4.6841                18.8614                 0.7941

                   103                    104                    105
                     A                      A                      A
 Frequencies --  1425.1416              1443.0603              1445.3983
 Red. masses --     7.7975                 7.8196                 4.3093
 Frc consts  --     9.3309                 9.5941                 5.3044
 IR Inten    --    32.5820               185.4195                91.1041

                   106                    107                    108
                     A                      A                      A
 Frequencies --  1452.5077              1490.1739              1501.9449
 Red. masses --     1.1378                 3.2926                 5.1284
 Frc consts  --     1.4143                 4.3078                 6.8161
 IR Inten    --    23.1743                28.7070                 4.0900

                   109                    110                    111
                     A                      A                      A
 Frequencies --  1507.7724              1518.6381              1533.9204
 Red. masses --     8.6763                 9.9322                 9.7014
 Frc consts  --    11.6214                13.4959                13.4490
 IR Inten    --    10.7878                26.4022                75.0318

                   112                    113                    114
                     A                      A                      A
 Frequencies --  1550.6110              1586.6668              1602.9713
 Red. masses --     7.9685                 9.5327                 9.1477
 Frc consts  --    11.2884                14.1396                13.8489
 IR Inten    --   142.5905                25.4385                56.8506

                   115                    116                    117
                     A                      A                      A
 Frequencies --  1604.2303              1633.2018              1638.5213
 Red. masses --     7.4003                 7.0600                 7.6341
 Frc consts  --    11.2210                11.0953                12.0756
 IR Inten    --    14.4546               253.8385                98.2042

                   118                    119                    120
                     A                      A                      A
 Frequencies --  2231.1756              2231.8596              2245.6379
 Red. masses --     1.0512                 1.0300                 1.0315
 Frc consts  --     3.0831                 3.0228                 3.0647
 IR Inten    --    98.1628               194.5341               123.2657

                   121                    122                    123
                     A                      A                      A
 Frequencies --  2267.6554              2935.8204              3022.6314
 Red. masses --     1.0514                 1.0799                 1.0600
 Frc consts  --     3.1854                 5.4838                 5.7059
 IR Inten    --   100.1075                30.8692                 9.8077

                   124                    125                    126
                     A                      A                      A
 Frequencies --  3049.2598              3082.3906              3212.4967
 Red. masses --     1.1014                 1.0850                 1.0915
 Frc consts  --     6.0335                 6.0739                 6.6366
 IR Inten    --     6.4634                16.1144                 1.2603

                   127                    128                    129
                     A                      A                      A
 Frequencies --  3214.7626              3215.7579              3236.2785
 Red. masses --     1.0871                 1.0904                 1.1030
 Frc consts  --     6.6196                 6.6437                 6.8064
 IR Inten    --     1.6078                10.3197                26.3791

                   130                    131                    132
                     A                      A                      A
 Frequencies --  3244.2875              3252.1141              3254.5392
 Red. masses --     1.0909                 1.0905                 1.0939
 Frc consts  --     6.7653                 6.7952                 6.8264
 IR Inten    --     1.2246                 0.1806                 0.3686

 - Thermochemistry -
 -------------------
 Temperature   298.150 Kelvin.  Pressure   1.00000 Atm.
 Atom     1 has atomic number  6 and mass  12.00000

 Molecular mass:   465.02460 amu.
 Principal axes and moments of inertia in atomic units:
                           1         2         3
     Eigenvalues --  8728.25711********************
           X            0.99994   0.01051   0.00094
           Y           -0.01051   0.99994  -0.00385
           Z           -0.00098   0.00384   0.99999
 This molecule is an asymmetric top.
 Rotational symmetry number  1.
 Warning -- assumption of classical behavior for rotation
           may cause significant error
 Rotational temperatures (Kelvin)      0.00992     0.00321     0.00247
 Rotational constants (GHZ):           0.20677     0.06687     0.05152
 Zero-point vibrational energy     828205.7 (Joules/Mol)
                                  197.94591 (Kcal/Mol)
 Warning -- explicit consideration of  39 degrees of freedom as
           vibrations may cause significant error
 Vibrational temperatures:     26.41    39.17    66.81    73.88   106.01
          (Kelvin)            119.61   141.56   172.58   179.18   205.20
                              237.39   255.89   259.75   289.92   300.29
                              327.37   344.13   386.58   416.21   437.00
                              443.25   462.11   480.63   509.49   556.10
                              564.49   593.37   608.16   639.84   665.87
                              688.55   696.16   730.55   736.03   754.96
                              769.87   805.73   818.07   824.41   894.95
                              907.89   917.87   951.12   957.62   965.21
                              971.99   979.34   991.53  1020.99  1028.45
                             1039.94  1043.76  1051.86  1084.09  1104.88
                             1117.79  1125.07  1125.69  1134.34  1146.56
                             1158.09  1168.18  1178.25  1187.79  1201.33
                             1211.83  1218.20  1240.89  1271.96  1307.63
                             1318.34  1342.98  1353.84  1362.73  1366.42
                             1369.62  1383.95  1407.06  1427.56  1471.59
                             1487.74  1547.08  1549.88  1587.18  1634.31
                             1662.35  1691.94  1710.92  1710.95  1739.42
                             1779.73  1799.11  1826.30  1856.26  1860.01
                             1868.72  1930.62  1945.70  1961.89  1968.46
                             1993.69  1998.59  2050.46  2076.24  2079.60
                             2089.83  2144.03  2160.96  2169.35  2184.98
                             2206.97  2230.98  2282.86  2306.32  2308.13
                             2349.81  2357.46  3210.16  3211.14  3230.97
                             3262.65  4223.99  4348.89  4387.20  4434.87
                             4622.06  4625.32  4626.75  4656.28  4667.80
                             4679.06  4682.55

 Zero-point correction=                           0.315447 (Hartree/Particle)
 Thermal correction to Energy=                    0.340271
 Thermal correction to Enthalpy=                  0.341215
 Thermal correction to Gibbs Free Energy=         0.260472
 Sum of electronic and zero-point Energies=          -2462.771321
 Sum of electronic and thermal Energies=             -2462.746498
 Sum of electronic and thermal Enthalpies=           -2462.745553
 Sum of electronic and thermal Free Energies=        -2462.826296

                     E (Thermal)             CV                S
                      KCal/Mol        Cal/Mol-Kelvin    Cal/Mol-Kelvin
 Total                  213.523            101.549            169.937
 Electronic               0.000              0.000              0.000
 Translational            0.889              2.981             44.299
 Rotational               0.889              2.981             37.354
 Vibrational            211.746             95.588             88.283
 Vibration     1          0.593              1.986              6.805
 Vibration     2          0.593              1.984              6.022
 Vibration     3          0.595              1.979              4.964
 Vibration     4          0.596              1.977              4.765
 Vibration     5          0.599              1.966              4.053
 Vibration     6          0.600              1.961              3.815
 Vibration     7          0.604              1.950              3.486
 Vibration     8          0.609              1.933              3.101
 Vibration     9          0.610              1.928              3.029
 Vibration    10          0.616              1.911              2.768
 Vibration    11          0.623              1.885              2.492
 Vibration    12          0.628              1.870              2.351
 Vibration    13          0.629              1.866              2.323
 Vibration    14          0.638              1.838              2.119
 Vibration    15          0.642              1.827              2.055
 Vibration    16          0.651              1.799              1.898
 Vibration    17          0.657              1.781              1.809
 Vibration    18          0.673              1.731              1.605
 Vibration    19          0.686              1.694              1.478
 Vibration    20          0.695              1.667              1.396
 Vibration    21          0.698              1.658              1.373
 Vibration    22          0.707              1.633              1.304
 Vibration    23          0.716              1.607              1.240
 Vibration    24          0.730              1.567              1.148
 Vibration    25          0.755              1.499              1.014
 Vibration    26          0.760              1.487              0.991
 Vibration    27          0.776              1.443              0.918
 Vibration    28          0.785              1.421              0.883
 Vibration    29          0.804              1.373              0.812
 Vibration    30          0.820              1.333              0.758
 Vibration    31          0.835              1.298              0.714
 Vibration    32          0.840              1.286              0.700
 Vibration    33          0.863              1.233              0.639
 Vibration    34          0.867              1.224              0.630
 Vibration    35          0.880              1.195              0.599
 Vibration    36          0.890              1.172              0.576
 Vibration    37          0.916              1.118              0.524
 Vibration    38          0.925              1.099              0.507
 Vibration    39          0.929              1.090              0.499

 Normal termination of Gaussian 09 at Sun Dec 29 09:11:45 2013.
