 Gaussian 09, Revision C.01,
 Gaussian 09:  EM64L-G09RevC.01 23-Sep-2011

 --------------------------------------------
 #B3LYP/6-31++G(d,p) opt scf=direct freq test
 --------------------------------------------

 Geom opt of No.40 candidate from the CEPDB database with SMILE code of
  [SiH2]1ccc2csc(-c3ccc([nH]3)-c3ncc(s3)-c3cncc4nsnc34)c12, HPC, 201312
 27, Shuo Dai, Gaussian09
 ----------------------------------------------------------------------
 Charge =  0 Multiplicity = 1

 SCF Done:  E(RB3LYP) =  -2450.32535317     A.U. after   19 cycles
 SCF Done:  E(RB3LYP) =  -2450.35518137     A.U. after   17 cycles
 SCF Done:  E(RB3LYP) =  -2450.36272113     A.U. after   14 cycles
 SCF Done:  E(RB3LYP) =  -2450.36302422     A.U. after   12 cycles
 SCF Done:  E(RB3LYP) =  -2450.36306585     A.U. after   11 cycles
 SCF Done:  E(RB3LYP) =  -2450.36306987     A.U. after   11 cycles
 SCF Done:  E(RB3LYP) =  -2450.36307454     A.U. after   10 cycles
 SCF Done:  E(RB3LYP) =  -2450.36307730     A.U. after   11 cycles
 SCF Done:  E(RB3LYP) =  -2450.36308303     A.U. after   12 cycles
 SCF Done:  E(RB3LYP) =  -2450.36308329     A.U. after   12 cycles
 SCF Done:  E(RB3LYP) =  -2450.36332528     A.U. after   17 cycles
 SCF Done:  E(RB3LYP) =  -2450.36338274     A.U. after   14 cycles
 SCF Done:  E(RB3LYP) =  -2450.36347106     A.U. after   12 cycles
 SCF Done:  E(RB3LYP) =  -2450.36347361     A.U. after   11 cycles
 SCF Done:  E(RB3LYP) =  -2450.36347435     A.U. after   10 cycles
 SCF Done:  E(RB3LYP) =  -2450.36347479     A.U. after   10 cycles
 SCF Done:  E(RB3LYP) =  -2450.36347508     A.U. after   11 cycles
 SCF Done:  E(RB3LYP) =  -2450.36347543     A.U. after   11 cycles
 SCF Done:  E(RB3LYP) =  -2450.36347564     A.U. after   10 cycles
 Optimization completed.
    -- Stationary point found.
 Normal termination of Gaussian 09 at Sun Dec 29 09:18:17 2013.

 ----------------------------------------------------------------------
 #N Geom=AllCheck Guess=TCheck SCRF=Check Test GenChk RB3LYP/6-31++G(d,
 p) Freq
 ----------------------------------------------------------------------

 Geom opt of No.40 candidate from the CEPDB database with SMILE code of
  [SiH2]1ccc2csc(-c3ccc([nH]3)-c3ncc(s3)-c3cncc4nsnc34)c12, HPC, 201312
 27, Shuo Dai, Gaussian09
 ----------------------------------------------------------------------
 Charge =  0 Multiplicity = 1

                         Standard orientation:
 ---------------------------------------------------------------------
 Center     Atomic      Atomic             Coordinates (Angstroms)
 Number     Number       Type             X           Y           Z
 ---------------------------------------------------------------------
      1         14           0        6.544000   -1.498716    0.658459
      2          1           0        6.628164   -2.603921   -0.333080
      3          1           0        6.103643   -2.076349    1.954884
      4          6           0        8.099641   -0.442999    0.761830
      5          6           0        7.810057    0.833431    0.414374
      6          6           0        6.414326    1.110517    0.046354
      7          6           0        5.795823    2.279511   -0.312868
      8         16           0        4.105964    2.024042   -0.632194
      9          6           0        4.229964    0.302143   -0.238547
     10          6           0        3.065939   -0.554851   -0.309501
     11          6           0        2.973473   -1.937753   -0.491798
     12          6           0        1.609971   -2.286972   -0.483987
     13          6           0        0.872982   -1.116694   -0.297584
     14          7           0        1.778116   -0.076358   -0.202767
     15          1           0        1.544976    0.879942    0.022589
     16          6           0       -0.552921   -0.948214   -0.214983
     17          7           0       -1.410078   -1.945326   -0.261242
     18          6           0       -2.695477   -1.507763   -0.163277
     19          6           0       -2.892646   -0.144805   -0.032505
     20         16           0       -1.314816    0.637700   -0.044437
     21          6           0       -4.129301    0.606138    0.096650
     22          6           0       -4.156049    1.990021    0.236676
     23          7           0       -5.266658    2.774476    0.363601
     24          6           0       -6.457504    2.223154    0.359792
     25          6           0       -6.604460    0.810693    0.224216
     26          7           0       -7.757255    0.128360    0.205069
     27         16           0       -7.352413   -1.450535    0.028659
     28          7           0       -5.713622   -1.322127   -0.028648
     29          6           0       -5.427322   -0.019384    0.090183
     30          6           0        5.522467   -0.027432    0.093728
     31          1           0        9.104381   -0.737281    1.048781
     32          1           0        8.545449    1.635881    0.400468
     33          1           0        6.218246    3.270520   -0.412914
     34          1           0        3.809735   -2.603159   -0.650141
     35          1           0        1.177967   -3.268280   -0.611375
     36          1           0       -3.504138   -2.225097   -0.188747
     37          1           0       -3.220730    2.542780    0.252177
     38          1           0       -7.330765    2.862032    0.461898
 ---------------------------------------------------------------------

 SCF Done:  E(RB3LYP) =  -2450.36347564     A.U. after    2 cycles

 The electronic state is 1-A.
 Alpha  occ. eigenvalues --  -89.00062 -88.93359 -88.93037 -66.14553 -14.41174
 Alpha  occ. eigenvalues --  -14.39978 -14.39607 -14.36309 -14.35082 -10.28025
 Alpha  occ. eigenvalues --  -10.27219 -10.26551 -10.25374 -10.25373 -10.25205
 Alpha  occ. eigenvalues --  -10.24869 -10.24821 -10.24763 -10.24687 -10.23577
 Alpha  occ. eigenvalues --  -10.23479 -10.22124 -10.21894 -10.20310 -10.20240
 Alpha  occ. eigenvalues --  -10.19806 -10.19436  -8.05382  -7.99329  -7.98960
 Alpha  occ. eigenvalues --   -6.01934  -6.01349  -6.01146  -5.95746  -5.95406
 Alpha  occ. eigenvalues --   -5.95399  -5.95014  -5.95014  -5.94657  -5.29270
 Alpha  occ. eigenvalues --   -3.65171  -3.65108  -3.65094  -1.04559  -1.01309
 Alpha  occ. eigenvalues --   -0.97843  -0.96481  -0.91815  -0.90084  -0.84809
 Alpha  occ. eigenvalues --   -0.82092  -0.81212  -0.80481  -0.79994  -0.78028
 Alpha  occ. eigenvalues --   -0.75894  -0.72651  -0.71372  -0.68953  -0.65681
 Alpha  occ. eigenvalues --   -0.64522  -0.63106  -0.61839  -0.61455  -0.59755
 Alpha  occ. eigenvalues --   -0.58861  -0.57218  -0.55289  -0.53914  -0.53575
 Alpha  occ. eigenvalues --   -0.51679  -0.51117  -0.49245  -0.48702  -0.47867
 Alpha  occ. eigenvalues --   -0.47342  -0.46038  -0.45555  -0.45109  -0.44131
 Alpha  occ. eigenvalues --   -0.43637  -0.42928  -0.42663  -0.41200  -0.40775
 Alpha  occ. eigenvalues --   -0.40704  -0.40383  -0.40056  -0.39233  -0.38187
 Alpha  occ. eigenvalues --   -0.37774  -0.36490  -0.36064  -0.34914  -0.34265
 Alpha  occ. eigenvalues --   -0.32564  -0.32405  -0.31982  -0.31484  -0.30113
 Alpha  occ. eigenvalues --   -0.29320  -0.29075  -0.28175  -0.27784  -0.27627
 Alpha  occ. eigenvalues --   -0.25211  -0.23954  -0.20353
 Alpha virt. eigenvalues --   -0.11909  -0.07876  -0.05315  -0.04366  -0.02712
 Alpha virt. eigenvalues --   -0.02109  -0.01955  -0.01523  -0.01147  -0.00805
 Alpha virt. eigenvalues --   -0.00575   0.00123   0.00590   0.00932   0.01409

 Mulliken atomic charges:
              1
     1  Si   0.790034
     2  H   -0.090970
     3  H   -0.082775
     4  C   -0.365697
     5  C    0.360361
     6  C   -0.070723
     7  C   -0.136330
     8  S    0.073291
     9  C   -0.320653
    10  C    0.163056
    11  C   -0.176046
    12  C    0.048251
    13  C    0.328810
    14  N   -0.245197
    15  H    0.301868
    16  C   -0.389709
    17  N   -0.121600
    18  C    0.150605
    19  C   -0.149807
    20  S    0.025728
    21  C   -0.149049
    22  C   -0.229059
    23  N   -0.107933
    24  C   -0.296017
    25  C    0.291880
    26  N   -0.412419
    27  S    0.855441
    28  N   -0.462017
    29  C   -0.039384
    30  C   -0.885942
    31  H    0.147662
    32  H    0.116473
    33  H    0.169038
    34  H    0.111623
    35  H    0.176971
    36  H    0.250779
    37  H    0.188516
    38  H    0.180939
 Sum of Mulliken atomic charges =  -0.00000

 Dipole moment (field-independent basis, Debye):
    X=              2.3227    Y=              0.5699    Z=              0.2297  Tot=              2.4026
 Quadrupole moment (field-independent basis, Debye-Ang):
   XX=           -162.6069   YY=           -183.6810   ZZ=           -189.8730
   XY=             13.3307   XZ=              2.6017   YZ=             -1.0586

  Exact polarizability: 769.777 -28.955 355.728   2.735  -0.392 173.155
 Approx polarizability:1025.850 -72.312 735.310   1.340   4.317 288.022

                     1                      2                      3
                     A                      A                      A
 Frequencies --    11.1036                14.6432                29.1626
 Red. masses --    10.5147                 8.1740                 8.8972
 Frc consts  --     0.0008                 0.0010                 0.0045
 IR Inten    --     0.2110                 0.0129                 0.0702

                     4                      5                      6
                     A                      A                      A
 Frequencies --    36.0863                47.4048                77.3606
 Red. masses --     7.9914                 7.8673                 4.0110
 Frc consts  --     0.0061                 0.0104                 0.0141
 IR Inten    --     0.0147                 0.1033                 0.0729

                     7                      8                      9
                     A                      A                      A
 Frequencies --    77.9997               102.6514               103.4942
 Red. masses --     7.8182                 9.5931                 6.8983
 Frc consts  --     0.0280                 0.0596                 0.0435
 IR Inten    --     0.0801                 0.1621                 0.1673

                    10                     11                     12
                     A                      A                      A
 Frequencies --   149.2586               171.0824               187.6589
 Red. masses --     5.2260                 5.9703                 5.5527
 Frc consts  --     0.0686                 0.1030                 0.1152
 IR Inten    --     0.2060                 0.5624                 0.2531

                    13                     14                     15
                     A                      A                      A
 Frequencies --   201.4848               208.9510               224.2052
 Red. masses --     8.2911                 6.8154                 9.1086
 Frc consts  --     0.1983                 0.1753                 0.2698
 IR Inten    --     0.3895                 0.0821                 0.1578

                    16                     17                     18
                     A                      A                      A
 Frequencies --   248.4911               295.7189               314.4457
 Red. masses --     5.6911                 5.6315                 6.1118
 Frc consts  --     0.2070                 0.2902                 0.3560
 IR Inten    --     0.4560                 1.7286                 0.8818

                    19                     20                     21
                     A                      A                      A
 Frequencies --   328.4696               347.9166               364.0623
 Red. masses --     8.0107                 5.8127                 2.5976
 Frc consts  --     0.5092                 0.4146                 0.2028
 IR Inten    --     3.2094                 2.5722                 1.1440

                    22                     23                     24
                     A                      A                      A
 Frequencies --   386.2363               408.2524               444.2664
 Red. masses --     8.8432                 6.8996                 8.7203
 Frc consts  --     0.7773                 0.6775                 1.0141
 IR Inten    --     2.4329                 8.5472                 2.4236

                    25                     26                     27
                     A                      A                      A
 Frequencies --   456.5566               472.2027               483.7971
 Red. masses --     7.6076                 1.6757                 6.9482
 Frc consts  --     0.9343                 0.2201                 0.9582
 IR Inten    --    19.4604                27.0973                 6.1935

                    28                     29                     30
                     A                      A                      A
 Frequencies --   489.8961               507.8409               527.0909
 Red. masses --     4.0404                 6.4394                 4.9501
 Frc consts  --     0.5713                 0.9785                 0.8103
 IR Inten    --     1.3698                 7.6083                 1.7683

                    31                     32                     33
                     A                      A                      A
 Frequencies --   533.0343               554.2258               583.7892
 Red. masses --     5.8279                 7.2408                 4.4515
 Frc consts  --     0.9756                 1.3104                 0.8939
 IR Inten    --    26.1108                 4.6979                 5.8022

                    34                     35                     36
                     A                      A                      A
 Frequencies --   588.0689               615.2258               615.6116
 Red. masses --     1.4402                 6.2426                 7.5418
 Frc consts  --     0.2934                 1.3921                 1.6840
 IR Inten    --    20.3723                 0.4107                 2.1506

                    37                     38                     39
                     A                      A                      A
 Frequencies --   620.8805               625.4884               630.2387
 Red. masses --     1.7648                 5.5481                 7.9969
 Frc consts  --     0.4008                 1.2789                 1.8715
 IR Inten    --    40.2542                 1.7478                 5.8890

                    40                     41                     42
                     A                      A                      A
 Frequencies --   654.0351               664.9154               677.1046
 Red. masses --    11.6989                 4.0519                 3.4182
 Frc consts  --     2.9485                 1.0555                 0.9233
 IR Inten    --    24.1459                 0.8032                21.2774

                    43                     44                     45
                     A                      A                      A
 Frequencies --   721.3677               722.2837               726.9209
 Red. masses --     9.8159                 1.5737                 1.5257
 Frc consts  --     3.0095                 0.4837                 0.4750
 IR Inten    --     9.0572                37.7175                 3.9141

                    46                     47                     48
                     A                      A                      A
 Frequencies --   730.8941               745.9116               770.7594
 Red. masses --     1.5302                 9.1564                 5.4246
 Frc consts  --     0.4816                 3.0016                 1.8987
 IR Inten    --     2.6150                 4.6488                 3.3333

                    49                     50                     51
                     A                      A                      A
 Frequencies --   784.7339               803.6385               804.9511
 Red. masses --     3.1378                 1.7919                 1.5453
 Frc consts  --     1.1385                 0.6818                 0.5899
 IR Inten    --    31.2580                14.3489                97.6454

                    52                     53                     54
                     A                      A                      A
 Frequencies --   828.5369               837.4482               838.5758
 Red. masses --    10.9034                13.3468                 4.3632
 Frc consts  --     4.4100                 5.5150                 1.8078
 IR Inten    --    25.7378                42.9794                21.1435

                    55                     56                     57
                     A                      A                      A
 Frequencies --   868.6649               871.8780               875.3457
 Red. masses --     3.4585                 5.5059                 6.8930
 Frc consts  --     1.5376                 2.4660                 3.1118
 IR Inten    --   105.8321               111.4497                60.0199

                    58                     59                     60
                     A                      A                      A
 Frequencies --   889.9024               896.2351               908.8845
 Red. masses --     1.4567                 1.3834                 6.9840
 Frc consts  --     0.6797                 0.6547                 3.3992
 IR Inten    --    19.0404                 2.7078                61.2516

                    61                     62                     63
                     A                      A                      A
 Frequencies --   910.3978               920.8689               939.5311
 Red. masses --     1.3867                 8.4387                 1.5034
 Frc consts  --     0.6772                 4.2162                 0.7819
 IR Inten    --    10.5678                11.4491                 0.0502

                    64                     65                     66
                     A                      A                      A
 Frequencies --   971.9696               996.5593              1000.2911
 Red. masses --     1.0554                 1.2998                 3.9114
 Frc consts  --     0.5874                 0.7606                 2.3058
 IR Inten    --   142.3901                 1.3338                 9.0440

                    67                     68                     69
                     A                      A                      A
 Frequencies --  1044.5498              1067.3723              1077.7749
 Red. masses --     2.7301                 1.4142                 3.2340
 Frc consts  --     1.7550                 0.9493                 2.2133
 IR Inten    --    23.6408                70.9820                12.2725

                    70                     71                     72
                     A                      A                      A
 Frequencies --  1116.5910              1139.3389              1164.6787
 Red. masses --     1.3619                 3.4818                 1.3276
 Frc consts  --     1.0004                 2.6630                 1.0611
 IR Inten    --    16.7947                 6.7024                 3.4059

                    73                     74                     75
                     A                      A                      A
 Frequencies --  1168.3264              1194.6884              1270.0767
 Red. masses --     8.1692                 2.0739                 1.8538
 Frc consts  --     6.5699                 1.7440                 1.7619
 IR Inten    --    22.3393               200.3578                19.0729

                    76                     77                     78
                     A                      A                      A
 Frequencies --  1273.9790              1281.6785              1306.7550
 Red. masses --     2.1308                 2.3164                 2.6426
 Frc consts  --     2.0376                 2.2420                 2.6587
 IR Inten    --    72.7053                11.0636                32.3083

                    79                     80                     81
                     A                      A                      A
 Frequencies --  1319.4342              1339.8346              1347.1133
 Red. masses --     5.0398                 1.5918                 4.7809
 Frc consts  --     5.1694                 1.6836                 5.1117
 IR Inten    --   164.1677                20.3057                 4.2307

                    82                     83                     84
                     A                      A                      A
 Frequencies --  1355.4099              1367.2569              1377.7605
 Red. masses --     3.2806                 7.6357                 2.5857
 Frc consts  --     3.5510                 8.4101                 2.8919
 IR Inten    --     2.5291                42.9109                 3.3977

                    85                     86                     87
                     A                      A                      A
 Frequencies --  1419.6685              1428.2331              1450.0374
 Red. masses --     2.8976                 4.6559                 4.3147
 Frc consts  --     3.4408                 5.5956                 5.3452
 IR Inten    --     4.9701                 7.9928                61.1121

                    88                     89                     90
                     A                      A                      A
 Frequencies --  1463.9494              1493.5359              1513.6690
 Red. masses --     6.1446                 6.5513                 6.0281
 Frc consts  --     7.7588                 8.6101                 8.1376
 IR Inten    --   103.6200               680.4806                69.0905

                    91                     92                     93
                     A                      A                      A
 Frequencies --  1525.6312              1534.9683              1550.5700
 Red. masses --     6.5573                 5.4475                 6.2587
 Frc consts  --     8.9924                 7.5622                 8.8658
 IR Inten    --    28.6863               193.9436                32.5872

                    94                     95                     96
                     A                      A                      A
 Frequencies --  1577.5290              1605.8631              1608.7464
 Red. masses --     9.1605                 6.6117                 6.1584
 Frc consts  --    13.4315                10.0457                 9.3905
 IR Inten    --    18.7366                65.8844                45.9523

                    97                     98                     99
                     A                      A                      A
 Frequencies --  1619.5195              2221.6496              2229.7649
 Red. masses --     4.6992                 1.0454                 1.0361
 Frc consts  --     7.2618                 3.0399                 3.0350
 IR Inten    --   121.5035               132.4153               128.9185

                   100                    101                    102
                     A                      A                      A
 Frequencies --  3166.5415              3185.2469              3193.0222
 Red. masses --     1.0884                 1.0890                 1.0928
 Frc consts  --     6.4301                 6.5099                 6.5644
 IR Inten    --    20.8611                33.2489                 1.4845

                   103                    104                    105
                     A                      A                      A
 Frequencies --  3206.5149              3254.8004              3264.2942
 Red. masses --     1.0949                 1.0939                 1.0936
 Frc consts  --     6.6329                 6.8275                 6.8656
 IR Inten    --    15.3042                 0.8039                 3.2788

                   106                    107                    108
                     A                      A                      A
 Frequencies --  3264.6080              3282.8417              3649.7604
 Red. masses --     1.0930                 1.1001                 1.0807
 Frc consts  --     6.8636                 6.9851                 8.4814
 IR Inten    --     3.1005                 0.2217                32.3048

 - Thermochemistry -
 -------------------
 Temperature   298.150 Kelvin.  Pressure   1.00000 Atm.
 Atom     1 has atomic number 14 and mass  27.97693

 Molecular mass:   420.99459 amu.
 Principal axes and moments of inertia in atomic units:
                           1         2         3
     Eigenvalues --  3407.12157********************
           X            0.99999  -0.00357   0.00124
           Y            0.00357   0.99999   0.00155
           Z           -0.00125  -0.00155   1.00000
 This molecule is an asymmetric top.
 Rotational symmetry number  1.
 Warning -- assumption of classical behavior for rotation
           may cause significant error
 Rotational temperatures (Kelvin)      0.02542     0.00222     0.00206
 Rotational constants (GHZ):           0.52970     0.04617     0.04288
 Zero-point vibrational energy     666143.8 (Joules/Mol)
                                  159.21218 (Kcal/Mol)
 Warning -- explicit consideration of  36 degrees of freedom as
           vibrations may cause significant error
 Vibrational temperatures:     15.98    21.07    41.96    51.92    68.20
          (Kelvin)            111.30   112.22   147.69   148.90   214.75
                              246.15   270.00   289.89   300.63   322.58
                              357.52   425.47   452.42   472.59   500.57
                              523.80   555.71   587.38   639.20   656.88
                              679.39   696.08   704.85   730.67   758.37
                              766.92   797.41   839.94   846.10   885.17
                              885.73   893.31   899.94   906.77   941.01
                              956.66   974.20  1037.89  1039.20  1045.88
                             1051.59  1073.20  1108.95  1129.06  1156.26
                             1158.14  1192.08  1204.90  1206.52  1249.81
                             1254.44  1259.43  1280.37  1289.48  1307.68
                             1309.86  1324.92  1351.77  1398.45  1433.82
                             1439.19  1502.87  1535.71  1550.68  1606.52
                             1639.25  1675.71  1680.96  1718.89  1827.35
                             1832.97  1844.05  1880.13  1898.37  1927.72
                             1938.19  1950.13  1967.18  1982.29  2042.58
                             2054.91  2086.28  2106.29  2148.86  2177.83
                             2195.04  2208.47  2230.92  2269.71  2310.48
                             2314.62  2330.12  3196.45  3208.13  4555.94
                             4582.85  4594.04  4613.45  4682.93  4696.59
                             4697.04  4723.27  5251.18

 Zero-point correction=                           0.253721 (Hartree/Particle)
 Thermal correction to Energy=                    0.275987
 Thermal correction to Enthalpy=                  0.276931
 Thermal correction to Gibbs Free Energy=         0.198165
 Sum of electronic and zero-point Energies=          -2450.109755
 Sum of electronic and thermal Energies=             -2450.087489
 Sum of electronic and thermal Enthalpies=           -2450.086545
 Sum of electronic and thermal Free Energies=        -2450.165311

                     E (Thermal)             CV                S
                      KCal/Mol        Cal/Mol-Kelvin    Cal/Mol-Kelvin
 Total                  173.184             87.112            165.778
 Electronic               0.000              0.000              0.000
 Translational            0.889              2.981             44.003
 Rotational               0.889              2.981             36.970
 Vibrational            171.407             81.150             84.805
 Vibration     1          0.593              1.987              7.803
 Vibration     2          0.593              1.986              7.253
 Vibration     3          0.593              1.984              5.886
 Vibration     4          0.594              1.982              5.463
 Vibration     5          0.595              1.979              4.923
 Vibration     6          0.599              1.964              3.957
 Vibration     7          0.599              1.964              3.941
 Vibration     8          0.605              1.947              3.403
 Vibration     9          0.605              1.946              3.387
 Vibration    10          0.618              1.903              2.682
 Vibration    11          0.626              1.878              2.424
 Vibration    12          0.632              1.857              2.251
 Vibration    13          0.638              1.838              2.120
 Vibration    14          0.642              1.827              2.053
 Vibration    15          0.649              1.804              1.925
 Vibration    16          0.662              1.765              1.741
 Vibration    17          0.690              1.682              1.441
 Vibration    18          0.702              1.646              1.339
 Vibration    19          0.712              1.619              1.268
 Vibration    20          0.726              1.580              1.176
 Vibration    21          0.738              1.546              1.105
 Vibration    22          0.755              1.500              1.015
 Vibration    23          0.773              1.452              0.933
 Vibration    24          0.804              1.374              0.813
 Vibration    25          0.815              1.346              0.776
 Vibration    26          0.829              1.312              0.731
 Vibration    27          0.840              1.286              0.700
 Vibration    28          0.846              1.272              0.684
 Vibration    29          0.863              1.233              0.639
 Vibration    30          0.882              1.190              0.594
 Vibration    31          0.888              1.177              0.580
 Vibration    32          0.910              1.130              0.535
 Vibration    33          0.941              1.066              0.478
 Vibration    34          0.945              1.057              0.471
 Vibration    35          0.975              1.000              0.424
 Vibration    36          0.975              0.999              0.424

 Normal termination of Gaussian 09 at Sun Dec 29 10:23:30 2013.
