 Gaussian 09, Revision C.01,
 Gaussian 09:  EM64L-G09RevC.01 23-Sep-2011

 --------------------------------------------
 #B3LYP/6-31++G(d,p) opt scf=direct freq test
 --------------------------------------------

 Geom opt of No.70 candidate from the CEPDB database with SMILE code of
  c1csc(n1)-c1ccc([Se]1)-c1ncc(-c2scc3ccoc23)c2nsnc12, HPC, 20131227, S
 huo Dai, Gaussian09
 ----------------------------------------------------------------------
 Charge =  0 Multiplicity = 1

 SCF Done:  E(RB3LYP) =  -4580.20541455     A.U. after   18 cycles
 SCF Done:  E(RB3LYP) =  -4580.52010093     A.U. after   19 cycles
 SCF Done:  E(RB3LYP) =  -4580.88980308     A.U. after   19 cycles
 SCF Done:  E(RB3LYP) =  -4581.05234052     A.U. after   18 cycles
 SCF Done:  E(RB3LYP) =  -4581.20973063     A.U. after   17 cycles
 SCF Done:  E(RB3LYP) =  -4581.24720394     A.U. after   19 cycles
 SCF Done:  E(RB3LYP) =  -4581.27369390     A.U. after   19 cycles
 SCF Done:  E(RB3LYP) =  -4581.29559504     A.U. after   19 cycles
 SCF Done:  E(RB3LYP) =  -4581.33965166     A.U. after   19 cycles
 SCF Done:  E(RB3LYP) =  -4581.33851082     A.U. after   19 cycles
 SCF Done:  E(RB3LYP) =  -4581.34962239     A.U. after   17 cycles
 SCF Done:  E(RB3LYP) =  -4581.34962162     A.U. after   16 cycles
 SCF Done:  E(RB3LYP) =  -4581.34962056     A.U. after   16 cycles
 SCF Done:  E(RB3LYP) =  -4581.34961984     A.U. after   12 cycles
 SCF Done:  E(RB3LYP) =  -4581.34961909     A.U. after   12 cycles
 SCF Done:  E(RB3LYP) =  -4581.34961862     A.U. after   11 cycles
 SCF Done:  E(RB3LYP) =  -4581.34961823     A.U. after   11 cycles
 SCF Done:  E(RB3LYP) =  -4581.34961790     A.U. after   11 cycles
 SCF Done:  E(RB3LYP) =  -4581.34961794     A.U. after    9 cycles
 Optimization completed.
    -- Stationary point found.
 Normal termination of Gaussian 09 at Sun Dec 29 21:20:38 2013.

 ----------------------------------------------------------------------
 #N Geom=AllCheck Guess=TCheck SCRF=Check Test GenChk RB3LYP/6-31++G(d,
 p) Freq
 ----------------------------------------------------------------------

 Geom opt of No.70 candidate from the CEPDB database with SMILE code of
  c1csc(n1)-c1ccc([Se]1)-c1ncc(-c2scc3ccoc23)c2nsnc12, HPC, 20131227, S
 huo Dai, Gaussian09
 ----------------------------------------------------------------------
 Charge =  0 Multiplicity = 1

                         Standard orientation:
 ---------------------------------------------------------------------
 Center     Atomic      Atomic             Coordinates (Angstroms)
 Number     Number       Type             X           Y           Z
 ---------------------------------------------------------------------
      1          6           0        6.708125   -0.196844   -1.755043
      2          6           0        7.399599   -1.071826   -0.967598
      3         16           0        6.397954   -1.593890    0.349399
      4          6           0        5.097079   -0.576754   -0.278316
      5          7           0        5.415597    0.072612   -1.362080
      6          6           0        3.750179   -0.546467    0.371344
      7          6           0        3.720846   -0.213563    1.867750
      8          6           0        2.248027   -0.056829    2.261663
      9          6           0        1.498352    0.831761    1.247044
     10         34           0        2.609723    0.854870   -0.437537
     11          6           0        0.106718    0.383514    0.911057
     12          7           0       -0.265051   -0.864606    1.097013
     13          6           0       -1.527169   -1.274104    0.776862
     14          6           0       -2.525468   -0.490840    0.218254
     15          6           0       -3.845399   -1.017139   -0.107503
     16         16           0       -4.051131   -2.648874   -0.741277
     17          6           0       -5.782450   -2.537972   -0.805993
     18          6           0       -6.199855   -1.301670   -0.371101
     19          6           0       -7.382967   -0.506277   -0.117795
     20          6           0       -6.930993    0.671899    0.378769
     21          8           0       -5.552809    0.733747    0.476699
     22          6           0       -5.102526   -0.469785    0.008035
     23          6           0       -2.156718    0.876738   -0.017400
     24          7           0       -2.903084    1.839232   -0.571753
     25         16           0       -1.972636    3.192378   -0.596293
     26          7           0       -0.595256    2.607982    0.081767
     27          6           0       -0.830508    1.317110    0.346302
     28          1           0        7.100146    0.284259   -2.642846
     29          1           0        8.417651   -1.419279   -1.074568
     30          1           0        3.246433   -1.506607    0.210414
     31          1           0        4.274152    0.718264    2.031353
     32          1           0        4.199390   -1.000597    2.465031
     33          1           0        2.148242    0.354363    3.272140
     34          1           0        1.772460   -1.041265    2.257398
     35          1           0        1.470811    1.873305    1.569948
     36          1           0       -1.735377   -2.316044    1.004679
     37          1           0       -6.360783   -3.378508   -1.162557
     38          1           0       -8.417647   -0.772059   -0.277807
     39          1           0       -7.445266    1.562527    0.707577
 ---------------------------------------------------------------------

 SCF Done:  E(RB3LYP) =  -4581.34961794     A.U. after    2 cycles

 The electronic state is 1-A.
 Alpha  occ. eigenvalues -- -453.86828 -88.99204 -88.92905 -88.92716 -57.46770
 Alpha  occ. eigenvalues --  -52.13952 -52.13826 -52.13497 -19.22563 -14.39179
 Alpha  occ. eigenvalues --  -14.38631 -14.35304 -14.34863 -10.26854 -10.26302
 Alpha  occ. eigenvalues --  -10.26227 -10.26093 -10.25891 -10.25752 -10.24143
 Alpha  occ. eigenvalues --  -10.24105 -10.23636 -10.23627 -10.23201 -10.23103
 Alpha  occ. eigenvalues --  -10.22946 -10.22838 -10.21555 -10.20946 -10.20460
 Alpha  occ. eigenvalues --  -10.19787  -8.04500  -7.98734  -7.98700  -7.70763
 Alpha  occ. eigenvalues --   -6.01054  -6.00472  -6.00265  -5.95182  -5.95096
 Alpha  occ. eigenvalues --   -5.94789  -5.94748  -5.94435  -5.94428  -5.75021
 Alpha  occ. eigenvalues --   -5.74665  -5.73625  -2.10698  -2.10671  -2.09802
 Alpha  occ. eigenvalues --   -2.09519  -2.09325  -1.11853  -1.03739  -0.97445
 Alpha  occ. eigenvalues --   -0.96171  -0.91195  -0.89632  -0.84937  -0.83011
 Alpha  occ. eigenvalues --   -0.80764  -0.80605  -0.79857  -0.77082  -0.75138
 Alpha  occ. eigenvalues --   -0.73794  -0.71033  -0.70778  -0.67358  -0.64761
 Alpha  occ. eigenvalues --   -0.63357  -0.62665  -0.61496  -0.59852  -0.58892
 Alpha  occ. eigenvalues --   -0.58062  -0.55129  -0.53988  -0.53497  -0.52206
 Alpha  occ. eigenvalues --   -0.51539  -0.51309  -0.48551  -0.47789  -0.47209
 Alpha  occ. eigenvalues --   -0.46803  -0.46561  -0.45750  -0.44945  -0.44001
 Alpha  occ. eigenvalues --   -0.43504  -0.42478  -0.41748  -0.41680  -0.40362
 Alpha  occ. eigenvalues --   -0.39874  -0.39629  -0.38439  -0.37851  -0.37566
 Alpha  occ. eigenvalues --   -0.37424  -0.36840  -0.35608  -0.35419  -0.35055
 Alpha  occ. eigenvalues --   -0.33696  -0.32863  -0.31805  -0.31281  -0.30687
 Alpha  occ. eigenvalues --   -0.29394  -0.29339  -0.28200  -0.27736  -0.26517
 Alpha  occ. eigenvalues --   -0.25284  -0.24767  -0.21863  -0.21012
 Alpha virt. eigenvalues --   -0.10872  -0.05350  -0.03952  -0.02417  -0.02095
 Alpha virt. eigenvalues --   -0.01346  -0.00753  -0.00692  -0.00543  -0.00334
 Alpha virt. eigenvalues --    0.00063   0.00566   0.00815   0.01486   0.01572

 Mulliken atomic charges:
              1
     1  C    0.104591
     2  C   -0.199734
     3  S    0.192280
     4  C   -0.652788
     5  N    0.067144
     6  C   -0.436891
     7  C   -0.118485
     8  C   -0.459634
     9  C    0.345518
    10  Se   0.264055
    11  C   -0.856026
    12  N   -0.013085
    13  C   -0.193439
    14  C   -0.640316
    15  C   -0.662732
    16  S    0.076865
    17  C   -0.240463
    18  C    0.285674
    19  C    0.177459
    20  C    0.149490
    21  O   -0.247421
    22  C   -0.119625
    23  C    0.352745
    24  N   -0.365909
    25  S    0.961450
    26  N   -0.372695
    27  C    0.517061
    28  H    0.149971
    29  H    0.193416
    30  H    0.188044
    31  H    0.166873
    32  H    0.173626
    33  H    0.172850
    34  H    0.184873
    35  H    0.229087
    36  H    0.161516
    37  H    0.178041
    38  H    0.141768
    39  H    0.144846
 Sum of Mulliken atomic charges =  -0.00000

 Dipole moment (field-independent basis, Debye):
    X=             -1.2685    Y=             -1.1193    Z=              1.5061  Tot=              2.2650
 Quadrupole moment (field-independent basis, Debye-Ang):
   XX=           -147.0509   YY=           -183.2452   ZZ=           -189.1705
   XY=             -6.1282   XZ=              2.4016   YZ=              2.7593

  Exact polarizability: 521.397  -2.496 313.233  12.213  -8.245 226.737
 Approx polarizability: 705.810 -12.213 602.919  43.013 -32.471 406.137

                     1                      2                      3
                     A                      A                      A
 Frequencies --     5.3027                19.9056                28.3803
 Red. masses --     9.4277                 8.2642                10.0649
 Frc consts  --     0.0002                 0.0019                 0.0048
 IR Inten    --     0.1702                 0.3794                 0.4522

                     4                      5                      6
                     A                      A                      A
 Frequencies --    38.4522                43.4413                64.1625
 Red. masses --    11.7122                 9.0882                 6.8672
 Frc consts  --     0.0102                 0.0101                 0.0167
 IR Inten    --     0.7808                 0.4165                 0.5952

                     7                      8                      9
                     A                      A                      A
 Frequencies --    76.8755                92.6031               112.1122
 Red. masses --     8.5872                 7.0108                 5.7999
 Frc consts  --     0.0299                 0.0354                 0.0430
 IR Inten    --     1.5130                 0.8773                 0.9325

                    10                     11                     12
                     A                      A                      A
 Frequencies --   131.0238               166.5307               184.0933
 Red. masses --     8.3824                 5.7100                 8.3624
 Frc consts  --     0.0848                 0.0933                 0.1670
 IR Inten    --     1.5559                 0.9022                 0.0340

                    13                     14                     15
                     A                      A                      A
 Frequencies --   190.5005               208.4276               219.1223
 Red. masses --     9.1717                 8.4946                10.2079
 Frc consts  --     0.1961                 0.2174                 0.2888
 IR Inten    --     0.4311                 0.5676                 2.1085

                    16                     17                     18
                     A                      A                      A
 Frequencies --   227.0872               246.1825               249.2001
 Red. masses --     6.4424                 4.8164                 4.2963
 Frc consts  --     0.1957                 0.1720                 0.1572
 IR Inten    --     5.4192                 1.6754                 2.0658

                    19                     20                     21
                     A                      A                      A
 Frequencies --   286.8517               324.5041               360.0665
 Red. masses --     6.5615                 6.5825                 4.7682
 Frc consts  --     0.3181                 0.4084                 0.3642
 IR Inten    --     1.0210                 1.3071                 2.3902

                    22                     23                     24
                     A                      A                      A
 Frequencies --   385.0488               394.7307               451.2808
 Red. masses --     6.2456                 4.6285                 6.5164
 Frc consts  --     0.5456                 0.4249                 0.7819
 IR Inten    --     2.1307                 2.8956                 6.1503

                    25                     26                     27
                     A                      A                      A
 Frequencies --   458.5594               460.9521               508.9208
 Red. masses --     3.8948                 6.9550                10.6680
 Frc consts  --     0.4825                 0.8707                 1.6279
 IR Inten    --     1.1367                 5.0917                 3.9779

                    28                     29                     30
                     A                      A                      A
 Frequencies --   511.5100               518.9478               526.8336
 Red. masses --     7.9240                 4.7979                 8.5546
 Frc consts  --     1.2215                 0.7613                 1.3989
 IR Inten    --    19.6668                 5.9699                 1.6871

                    31                     32                     33
                     A                      A                      A
 Frequencies --   547.1350               581.3837               585.5114
 Red. masses --     9.5494                 4.0745                 4.8931
 Frc consts  --     1.6843                 0.8114                 0.9883
 IR Inten    --     2.2911                 2.3759                 8.3684

                    34                     35                     36
                     A                      A                      A
 Frequencies --   595.6952               604.7001               640.0197
 Red. masses --     4.6292                 4.4520                 6.8748
 Frc consts  --     0.9678                 0.9592                 1.6592
 IR Inten    --     2.6294                 8.0846                 7.8242

                    37                     38                     39
                     A                      A                      A
 Frequencies --   645.5823               671.2599               683.7041
 Red. masses --     5.5801                 4.1446                 5.5082
 Frc consts  --     1.3702                 1.1003                 1.5170
 IR Inten    --     5.6608                 4.8119                18.9434

                    40                     41                     42
                     A                      A                      A
 Frequencies --   699.9960               709.6178               728.3310
 Red. masses --     5.4521                 1.5428                 1.7433
 Frc consts  --     1.5740                 0.4577                 0.5449
 IR Inten    --     6.3517                14.9921                36.7014

                    43                     44                     45
                     A                      A                      A
 Frequencies --   728.7633               736.2701               740.9211
 Red. masses --     2.3510                 4.4484                 4.9211
 Frc consts  --     0.7356                 1.4208                 1.5917
 IR Inten    --    20.8739                29.4584                 2.6179

                    46                     47                     48
                     A                      A                      A
 Frequencies --   776.7089               785.4649               802.2406
 Red. masses --     1.8962                 5.7186                 9.2214
 Frc consts  --     0.6740                 2.0787                 3.4967
 IR Inten    --    43.7964                14.5064                 3.6236

                    49                     50                     51
                     A                      A                      A
 Frequencies --   810.9925               832.0690               838.0117
 Red. masses --     6.6464                 6.6316                 7.0338
 Frc consts  --     2.5756                 2.7051                 2.9103
 IR Inten    --    15.6051                49.0036                 3.8703

                    52                     53                     54
                     A                      A                      A
 Frequencies --   844.0203               868.7541               877.5661
 Red. masses --    10.8226                 7.9000                 1.3538
 Frc consts  --     4.5424                 3.5129                 0.6143
 IR Inten    --    49.1843                 2.6491                 0.2072

                    55                     56                     57
                     A                      A                      A
 Frequencies --   880.2234               889.0045               900.4287
 Red. masses --     3.7106                 5.1951                 2.3082
 Frc consts  --     1.6939                 2.4191                 1.1026
 IR Inten    --     8.9640                 6.2619                 7.0695

                    58                     59                     60
                     A                      A                      A
 Frequencies --   902.4377               917.2262               930.6314
 Red. masses --     1.3861                 2.6568                 1.9104
 Frc consts  --     0.6651                 1.3169                 0.9748
 IR Inten    --     2.1112                 8.7827                16.3572

                    61                     62                     63
                     A                      A                      A
 Frequencies --   952.6138               995.7077              1027.1084
 Red. masses --     3.1989                 2.2226                 2.1050
 Frc consts  --     1.7103                 1.2983                 1.3084
 IR Inten    --     5.5580                 2.4738                 0.3575

                    64                     65                     66
                     A                      A                      A
 Frequencies --  1051.0410              1051.2876              1081.4494
 Red. masses --     2.5633                 2.5944                 1.8114
 Frc consts  --     1.6683                 1.6894                 1.2482
 IR Inten    --    15.4092                67.6404                 6.7734

                    67                     68                     69
                     A                      A                      A
 Frequencies --  1090.9438              1108.4560              1112.4704
 Red. masses --     2.8725                 2.4819                 2.2749
 Frc consts  --     2.0142                 1.7967                 1.6588
 IR Inten    --    29.5667                12.1821                87.7297

                    70                     71                     72
                     A                      A                      A
 Frequencies --  1152.7482              1154.9172              1181.7582
 Red. masses --     1.6065                 1.5768                 1.9811
 Frc consts  --     1.2578                 1.2392                 1.6301
 IR Inten    --    10.7821                64.1344                 2.7807

                    73                     74                     75
                     A                      A                      A
 Frequencies --  1192.5473              1207.0048              1214.8025
 Red. masses --     1.4123                 1.7896                 2.2619
 Frc consts  --     1.1834                 1.5361                 1.9667
 IR Inten    --     7.2995                13.1115                40.3298

                    76                     77                     78
                     A                      A                      A
 Frequencies --  1242.9183              1255.4412              1271.3589
 Red. masses --     1.7237                 2.8369                 1.4905
 Frc consts  --     1.5689                 2.6344                 1.4194
 IR Inten    --    14.2095                19.3477                 5.3254

                    79                     80                     81
                     A                      A                      A
 Frequencies --  1317.8087              1326.3783              1332.9674
 Red. masses --     1.8832                 1.3685                 1.7746
 Frc consts  --     1.9268                 1.4186                 1.8578
 IR Inten    --     8.2049                 0.3710                 8.8735

                    82                     83                     84
                     A                      A                      A
 Frequencies --  1344.6584              1348.5760              1363.4192
 Red. masses --     1.9166                 1.8324                 5.4177
 Frc consts  --     2.0417                 1.9634                 5.9336
 IR Inten    --     1.1905                 1.2530                12.4337

                    85                     86                     87
                     A                      A                      A
 Frequencies --  1371.5334              1382.2926              1385.1812
 Red. masses --     1.8580                 1.4596                 5.2143
 Frc consts  --     2.0593                 1.6432                 5.8947
 IR Inten    --    13.0320                 7.7235                10.6487

                    88                     89                     90
                     A                      A                      A
 Frequencies --  1414.1414              1421.9648              1491.2167
 Red. masses --     4.9127                 2.8143                 1.1009
 Frc consts  --     5.7883                 3.3527                 1.4424
 IR Inten    --    15.9791                29.1302                 5.3748

                    91                     92                     93
                     A                      A                      A
 Frequencies --  1494.2431              1504.9592              1514.2053
 Red. masses --     5.6160                 1.0947                 7.3614
 Frc consts  --     7.3879                 1.4608                 9.9445
 IR Inten    --    20.9258                 3.7845                97.6912

                    94                     95                     96
                     A                      A                      A
 Frequencies --  1548.3304              1558.8421              1562.6733
 Red. masses --     7.1253                 7.7539                 7.3976
 Frc consts  --    10.0642                11.1014                10.6434
 IR Inten    --    33.0749                 9.0169                29.2928

                    97                     98                     99
                     A                      A                      A
 Frequencies --  1579.6611              1598.2739              1652.7257
 Red. masses --     5.0025                 7.0277                10.2637
 Frc consts  --     7.3548                10.5771                16.5180
 IR Inten    --    35.5560                29.8713                91.2098

                   100                    101                    102
                     A                      A                      A
 Frequencies --  3035.1599              3055.9604              3061.8549
 Red. masses --     1.0603                 1.0839                 1.0622
 Frc consts  --     5.7550                 5.9639                 5.8672
 IR Inten    --    36.4851                 0.7423                32.2848

                   103                    104                    105
                     A                      A                      A
 Frequencies --  3085.9346              3112.4262              3126.3416
 Red. masses --     1.1033                 1.0948                 1.0932
 Frc consts  --     6.1904                 6.2484                 6.2955
 IR Inten    --    12.9055                 2.9063                 9.3950

                   106                    107                    108
                     A                      A                      A
 Frequencies --  3186.5991              3234.3021              3266.8244
 Red. masses --     1.0905                 1.0906                 1.0923
 Frc consts  --     6.5245                 6.7214                 6.8679
 IR Inten    --    26.3813                 8.9489                 2.3361

                   109                    110                    111
                     A                      A                      A
 Frequencies --  3267.1579              3272.2201              3291.5673
 Red. masses --     1.0926                 1.0989                 1.1051
 Frc consts  --     6.8718                 6.9328                 7.0545
 IR Inten    --     2.4145                 1.0951                 1.8545

 - Thermochemistry -
 -------------------
 Temperature   298.150 Kelvin.  Pressure   1.00000 Atm.
 Atom     1 has atomic number  6 and mass  12.00000

 Molecular mass:   475.93385 amu.
 Principal axes and moments of inertia in atomic units:
                           1         2         3
     Eigenvalues --  5105.79077********************
           X            0.99999  -0.00269   0.00254
           Y            0.00267   0.99994   0.01074
           Z           -0.00256  -0.01074   0.99994
 This molecule is an asymmetric top.
 Rotational symmetry number  1.
 Warning -- assumption of classical behavior for rotation
           may cause significant error
 Rotational temperatures (Kelvin)      0.01696     0.00272     0.00251
 Rotational constants (GHZ):           0.35347     0.05676     0.05237
 Zero-point vibrational energy     712383.7 (Joules/Mol)
                                  170.26379 (Kcal/Mol)
 Warning -- explicit consideration of  35 degrees of freedom as
           vibrations may cause significant error
 Vibrational temperatures:      7.63    28.64    40.83    55.32    62.50
          (Kelvin)             92.32   110.61   133.24   161.30   188.51
                              239.60   264.87   274.09   299.88   315.27
                              326.73   354.20   358.54   412.72   466.89
                              518.05   554.00   567.93   649.29   659.76
                              663.21   732.22   735.95   746.65   758.00
                              787.20   836.48   842.42   857.07   870.03
                              920.84   928.85   965.79   983.70  1007.14
                             1020.98  1047.90  1048.53  1059.33  1066.02
                             1117.51  1130.11  1154.24  1166.84  1197.16
                             1205.71  1214.36  1249.94  1262.62  1266.44
                             1279.08  1295.51  1298.41  1319.68  1338.97
                             1370.60  1432.60  1477.78  1512.21  1512.57
                             1555.96  1569.62  1594.82  1600.59  1658.55
                             1661.67  1700.28  1715.81  1736.61  1747.83
                             1788.28  1806.30  1829.20  1896.03  1908.36
                             1917.84  1934.66  1940.30  1961.65  1973.33
                             1988.81  1992.96  2034.63  2045.89  2145.53
                             2149.88  2165.30  2178.60  2227.70  2242.82
                             2248.34  2272.78  2299.56  2377.90  4366.91
                             4396.84  4405.32  4439.97  4478.08  4498.10
                             4584.80  4653.43  4700.23  4700.71  4707.99
                             4735.83

 Zero-point correction=                           0.271333 (Hartree/Particle)
 Thermal correction to Energy=                    0.293619
 Thermal correction to Enthalpy=                  0.294563
 Thermal correction to Gibbs Free Energy=         0.214637
 Sum of electronic and zero-point Energies=          -4581.078285
 Sum of electronic and thermal Energies=             -4581.055999
 Sum of electronic and thermal Enthalpies=           -4581.055055
 Sum of electronic and thermal Free Energies=        -4581.134981

                     E (Thermal)             CV                S
                      KCal/Mol        Cal/Mol-Kelvin    Cal/Mol-Kelvin
 Total                  184.248             85.806            168.219
 Electronic               0.000              0.000              0.000
 Translational            0.889              2.981             44.368
 Rotational               0.889              2.981             36.968
 Vibrational            182.471             79.844             86.882
 Vibration     1          0.593              1.987              9.272
 Vibration     2          0.593              1.986              6.644
 Vibration     3          0.593              1.984              5.940
 Vibration     4          0.594              1.982              5.337
 Vibration     5          0.595              1.980              5.096
 Vibration     6          0.597              1.971              4.325
 Vibration     7          0.599              1.965              3.969
 Vibration     8          0.602              1.954              3.604
 Vibration     9          0.607              1.939              3.232
 Vibration    10          0.612              1.922              2.931
 Vibration    11          0.624              1.884              2.474
 Vibration    12          0.631              1.862              2.286
 Vibration    13          0.634              1.853              2.223
 Vibration    14          0.642              1.828              2.057
 Vibration    15          0.647              1.812              1.966
 Vibration    16          0.651              1.800              1.902
 Vibration    17          0.661              1.769              1.758
 Vibration    18          0.662              1.764              1.736
 Vibration    19          0.684              1.698              1.492
 Vibration    20          0.709              1.626              1.287
 Vibration    21          0.735              1.555              1.122
 Vibration    22          0.754              1.502              1.019
 Vibration    23          0.762              1.481              0.982
 Vibration    24          0.810              1.358              0.792
 Vibration    25          0.817              1.342              0.770
 Vibration    26          0.819              1.337              0.763
 Vibration    27          0.864              1.230              0.636
 Vibration    28          0.867              1.224              0.630
 Vibration    29          0.874              1.208              0.612
 Vibration    30          0.882              1.191              0.594
 Vibration    31          0.902              1.146              0.550
 Vibration    32          0.938              1.072              0.483
 Vibration    33          0.943              1.063              0.475
 Vibration    34          0.953              1.041              0.457
 Vibration    35          0.963              1.022              0.442

 Normal termination of Gaussian 09 at Sun Dec 29 22:40:34 2013.
