 Gaussian 09, Revision C.01,
 Gaussian 09:  EM64L-G09RevC.01 23-Sep-2011

 --------------------------------------------
 #B3LYP/6-31++G(d,p) opt scf=direct freq test
 --------------------------------------------

 Geom opt of No.10 candidate from the CEPDB database with SMILE code of
  [SiH2]1cccc1-c1ncc(s1)-c1cnc(-c2scc3ccoc23)c2nsnc12, HPC, 20131227, S
 huo Dai, Gaussian09
 ----------------------------------------------------------------------
 Charge =  0 Multiplicity = 1

 SCF Done:  E(RB3LYP) =  -2470.10626097     A.U. after   23 cycles
 SCF Done:  E(RB3LYP) =  -2470.15131026     A.U. after   17 cycles
 SCF Done:  E(RB3LYP) =  -2470.17784979     A.U. after   19 cycles
 SCF Done:  E(RB3LYP) =  -2470.18369333     A.U. after   17 cycles
 SCF Done:  E(RB3LYP) =  -2470.18517497     A.U. after   14 cycles
 SCF Done:  E(RB3LYP) =  -2470.18568865     A.U. after   13 cycles
 SCF Done:  E(RB3LYP) =  -2470.18592750     A.U. after   14 cycles
 SCF Done:  E(RB3LYP) =  -2470.18608531     A.U. after   14 cycles
 SCF Done:  E(RB3LYP) =  -2470.18618920     A.U. after   13 cycles
 SCF Done:  E(RB3LYP) =  -2470.18622857     A.U. after   12 cycles
 SCF Done:  E(RB3LYP) =  -2470.18624485     A.U. after   11 cycles
 SCF Done:  E(RB3LYP) =  -2470.18625685     A.U. after   12 cycles
 SCF Done:  E(RB3LYP) =  -2470.18626103     A.U. after   11 cycles
 SCF Done:  E(RB3LYP) =  -2470.18626196     A.U. after   10 cycles
 SCF Done:  E(RB3LYP) =  -2470.18626238     A.U. after   10 cycles
 SCF Done:  E(RB3LYP) =  -2470.18626273     A.U. after   10 cycles
 SCF Done:  E(RB3LYP) =  -2470.18626293     A.U. after   11 cycles
 SCF Done:  E(RB3LYP) =  -2470.18626300     A.U. after    9 cycles
 SCF Done:  E(RB3LYP) =  -2470.18626303     A.U. after    9 cycles
 Optimization completed.
    -- Stationary point found.
 Normal termination of Gaussian 09 at Sun Dec 29 01:14:42 2013.

 ----------------------------------------------------------------------
 #N Geom=AllCheck Guess=TCheck SCRF=Check Test GenChk RB3LYP/6-31++G(d,
 p) Freq
 ----------------------------------------------------------------------

 Geom opt of No.10 candidate from the CEPDB database with SMILE code of
  [SiH2]1cccc1-c1ncc(s1)-c1cnc(-c2scc3ccoc23)c2nsnc12, HPC, 20131227, S
 huo Dai, Gaussian09
 ----------------------------------------------------------------------
 Charge =  0 Multiplicity = 1

                         Standard orientation:
 ---------------------------------------------------------------------
 Center     Atomic      Atomic             Coordinates (Angstroms)
 Number     Number       Type             X           Y           Z
 ---------------------------------------------------------------------
      1         14           0       -6.221894   -2.073730   -0.000353
      2          1           0       -5.822232   -2.841624    1.207000
      3          1           0       -5.821523   -2.840482   -1.208210
      4          6           0       -8.009604   -1.511592   -0.000436
      5          6           0       -7.999674   -0.155942   -0.000097
      6          6           0       -6.687173    0.510587    0.000062
      7          6           0       -5.580766   -0.290487    0.000116
      8          6           0       -4.233858    0.237619    0.000264
      9          7           0       -3.910724    1.514375    0.000443
     10          6           0       -2.563390    1.699360    0.000488
     11          6           0       -1.769745    0.561769    0.000266
     12         16           0       -2.830345   -0.835212    0.000146
     13          6           0       -0.322249    0.446940    0.000209
     14          6           0        0.336508   -0.780622    0.000343
     15          7           0        1.673171   -0.988815    0.000316
     16          6           0        2.525436    0.029752    0.000128
     17          6           0        3.939173   -0.274926    0.000067
     18         16           0        5.230412    0.930961   -0.000007
     19          6           0        6.488590   -0.259214   -0.000038
     20          6           0        5.968916   -1.535040    0.000059
     21          6           0        6.340610   -2.933399   -0.000147
     22          6           0        5.169531   -3.617242   -0.000158
     23          8           0        4.057186   -2.793664   -0.000026
     24          6           0        4.545386   -1.522282    0.000097
     25          6           0        1.993958    1.372823   -0.000040
     26          7           0        2.702374    2.503765   -0.000250
     27         16           0        1.621387    3.739500   -0.000381
     28          7           0        0.221401    2.877726   -0.000146
     29          6           0        0.559694    1.582262    0.000005
     30          1           0       -8.928412   -2.087575   -0.000181
     31          1           0       -8.903803    0.450654    0.000071
     32          1           0       -6.613735    1.595318    0.000059
     33          1           0       -2.162716    2.703482    0.000630
     34          1           0       -0.251137   -1.695612    0.000516
     35          1           0        7.521538    0.060764   -0.000051
     36          1           0        7.330479   -3.365532   -0.000194
     37          1           0        4.945712   -4.673397   -0.000268
 ---------------------------------------------------------------------

 SCF Done:  E(RB3LYP) =  -2470.18626303     A.U. after    1 cycles

 The electronic state is 1-A.
 Alpha  occ. eigenvalues --  -88.99598 -88.93206 -88.92388 -66.14396 -19.22966
 Alpha  occ. eigenvalues --  -14.39632 -14.39064 -14.35053 -14.34368 -10.26840
 Alpha  occ. eigenvalues --  -10.26785 -10.26745 -10.26615 -10.26467 -10.26428
 Alpha  occ. eigenvalues --  -10.24252 -10.24252 -10.24196 -10.23767 -10.23595
 Alpha  occ. eigenvalues --  -10.22740 -10.21810 -10.21716 -10.21559 -10.21238
 Alpha  occ. eigenvalues --  -10.20453 -10.19372  -8.04902  -7.98957  -7.98371
 Alpha  occ. eigenvalues --   -6.01465  -6.00881  -6.00648  -5.95408  -5.95004
 Alpha  occ. eigenvalues --   -5.94770  -5.94666  -5.94433  -5.94082  -5.29191
 Alpha  occ. eigenvalues --   -3.65074  -3.65032  -3.65013  -1.12292  -1.04196
 Alpha  occ. eigenvalues --   -0.97169  -0.96299  -0.91612  -0.89713  -0.84511
 Alpha  occ. eigenvalues --   -0.83747  -0.81888  -0.80501  -0.78483  -0.77235
 Alpha  occ. eigenvalues --   -0.75339  -0.73427  -0.71257  -0.68294  -0.65377
 Alpha  occ. eigenvalues --   -0.64186  -0.63849  -0.63030  -0.60129  -0.58440
 Alpha  occ. eigenvalues --   -0.58186  -0.55831  -0.53967  -0.53691  -0.52970
 Alpha  occ. eigenvalues --   -0.51439  -0.50025  -0.49894  -0.47846  -0.47840
 Alpha  occ. eigenvalues --   -0.47494  -0.46921  -0.45411  -0.45074  -0.44686
 Alpha  occ. eigenvalues --   -0.42766  -0.42321  -0.41853  -0.41425  -0.40742
 Alpha  occ. eigenvalues --   -0.40288  -0.39526  -0.38415  -0.37922  -0.37515
 Alpha  occ. eigenvalues --   -0.37229  -0.36068  -0.35885  -0.34182  -0.33527
 Alpha  occ. eigenvalues --   -0.33051  -0.32672  -0.31819  -0.31489  -0.30493
 Alpha  occ. eigenvalues --   -0.29603  -0.28286  -0.28213  -0.27491  -0.26870
 Alpha  occ. eigenvalues --   -0.24971  -0.23107  -0.20264
 Alpha virt. eigenvalues --   -0.11830  -0.08860  -0.05652  -0.03341  -0.01914
 Alpha virt. eigenvalues --   -0.01859  -0.01375  -0.00748  -0.00455  -0.00232
 Alpha virt. eigenvalues --    0.00068   0.00333   0.00950   0.01384   0.01486

 Mulliken atomic charges:
              1
     1  Si   0.684064
     2  H   -0.073873
     3  H   -0.073877
     4  C   -0.378134
     5  C   -0.218164
     6  C    0.260276
     7  C   -0.450148
     8  C    0.023648
     9  N   -0.075483
    10  C    0.318887
    11  C   -0.658797
    12  S   -0.086845
    13  C   -0.639855
    14  C    0.244593
    15  N   -0.134335
    16  C    0.220176
    17  C   -0.656370
    18  S    0.241481
    19  C   -0.326616
    20  C    0.021741
    21  C    0.147390
    22  C    0.169072
    23  O   -0.219268
    24  C   -0.420353
    25  C    0.352669
    26  N   -0.422911
    27  S    0.975453
    28  N   -0.439083
    29  C    0.254821
    30  H    0.149523
    31  H    0.125911
    32  H    0.178819
    33  H    0.239742
    34  H    0.188884
    35  H    0.185092
    36  H    0.141394
    37  H    0.150476
 Sum of Mulliken atomic charges =  -0.00000

 Dipole moment (field-independent basis, Debye):
    X=              1.6590    Y=             -1.1584    Z=             -0.0001  Tot=              2.0234
 Quadrupole moment (field-independent basis, Debye-Ang):
   XX=           -144.2678   YY=           -170.4108   ZZ=           -188.5668
   XY=             -0.5153   XZ=             -0.0038   YZ=             -0.0003

  Exact polarizability: 807.006 -22.500 373.453  -0.000   0.002 161.123
 Approx polarizability:1209.244 -63.541 709.171  -0.007   0.000 265.797

                     1                      2                      3
                     A                      A                      A
 Frequencies --    15.5304                23.2965                29.4860
 Red. masses --     6.4298                 6.0661                 9.6791
 Frc consts  --     0.0009                 0.0019                 0.0050
 IR Inten    --     0.0687                 0.4168                 0.4388

                     4                      5                      6
                     A                      A                      A
 Frequencies --    39.4772                41.4350                57.8612
 Red. masses --     7.2220                 5.8590                 8.9267
 Frc consts  --     0.0066                 0.0059                 0.0176
 IR Inten    --     0.4411                 0.0697                 0.2656

                     7                      8                      9
                     A                      A                      A
 Frequencies --    84.7434               105.9428               130.7241
 Red. masses --     7.7382                 6.9237                 9.7272
 Frc consts  --     0.0327                 0.0458                 0.0979
 IR Inten    --     0.5230                 1.3255                 0.1252

                    10                     11                     12
                     A                      A                      A
 Frequencies --   151.4898               165.3358               175.7184
 Red. masses --     5.8527                 9.7689                 6.2487
 Frc consts  --     0.0791                 0.1573                 0.1137
 IR Inten    --     0.1931                 0.6759                 0.4336

                    13                     14                     15
                     A                      A                      A
 Frequencies --   189.2642               205.5432               228.3551
 Red. masses --    11.2258                 6.6919                 6.7242
 Frc consts  --     0.2369                 0.1666                 0.2066
 IR Inten    --     0.2598                 0.6178                 4.8631

                    16                     17                     18
                     A                      A                      A
 Frequencies --   248.6378               261.9790               305.8186
 Red. masses --     3.4409                10.7155                 4.3761
 Frc consts  --     0.1253                 0.4333                 0.2411
 IR Inten    --     1.8644                 1.9032                 0.0161

                    19                     20                     21
                     A                      A                      A
 Frequencies --   310.3800               342.8947               362.6754
 Red. masses --     9.6847                 4.6385                 9.9262
 Frc consts  --     0.5497                 0.3213                 0.7693
 IR Inten    --     3.5251                 0.2196                 7.7656

                    22                     23                     24
                     A                      A                      A
 Frequencies --   393.5747               403.7282               418.7665
 Red. masses --     1.8669                 4.6655                 9.0225
 Frc consts  --     0.1704                 0.4480                 0.9322
 IR Inten    --     0.3544                 0.3097                 3.1214

                    25                     26                     27
                     A                      A                      A
 Frequencies --   449.2916               469.9839               507.0036
 Red. masses --     6.8318                 6.5804                 6.2901
 Frc consts  --     0.8125                 0.8564                 0.9526
 IR Inten    --    11.9608                 1.9063                 0.3850

                    28                     29                     30
                     A                      A                      A
 Frequencies --   517.0548               523.5823               527.2472
 Red. masses --    10.4806                10.8015                10.2520
 Frc consts  --     1.6509                 1.7446                 1.6791
 IR Inten    --    15.6169                 1.6571                 3.8456

                    31                     32                     33
                     A                      A                      A
 Frequencies --   537.5159               540.2323               585.2085
 Red. masses --    12.4197                 5.4288                 2.2917
 Frc consts  --     2.1142                 0.9335                 0.4624
 IR Inten    --    10.4958                23.3291                 0.5780

                    34                     35                     36
                     A                      A                      A
 Frequencies --   587.9270               602.5851               627.7944
 Red. masses --     3.3378                 4.6644                 8.3068
 Frc consts  --     0.6798                 0.9979                 1.9290
 IR Inten    --     0.1402                 1.7768                 1.0119

                    37                     38                     39
                     A                      A                      A
 Frequencies --   636.1041               638.7312               652.5950
 Red. masses --     9.0692                 3.9107                10.7489
 Frc consts  --     2.1621                 0.9400                 2.6971
 IR Inten    --    15.9802                 7.4880                 2.4365

                    40                     41                     42
                     A                      A                      A
 Frequencies --   678.5804               691.3664               717.6872
 Red. masses --     5.9998                 1.4462                 7.6428
 Frc consts  --     1.6277                 0.4073                 2.3194
 IR Inten    --     2.2118                40.6137                16.9994

                    43                     44                     45
                     A                      A                      A
 Frequencies --   720.8219               730.2542               732.4291
 Red. masses --     1.4468                 1.6704                 2.0432
 Frc consts  --     0.4429                 0.5248                 0.6458
 IR Inten    --     6.2547                25.7634                10.4745

                    46                     47                     48
                     A                      A                      A
 Frequencies --   743.7211               748.0059               751.6667
 Red. masses --     1.2588                 7.6309                10.4124
 Frc consts  --     0.4102                 2.5156                 3.4662
 IR Inten    --    78.5722                15.5613                30.1547

                    49                     50                     51
                     A                      A                      A
 Frequencies --   781.2313               796.8222               832.0816
 Red. masses --     1.9139                10.3058                 5.2850
 Frc consts  --     0.6882                 3.8553                 2.1559
 IR Inten    --    49.8170                 1.7057                85.5561

                    52                     53                     54
                     A                      A                      A
 Frequencies --   835.3333               839.4491               846.1289
 Red. masses --     4.0779                 4.6032                 8.2772
 Frc consts  --     1.6765                 1.9112                 3.4914
 IR Inten    --    47.5693                14.1356               128.8560

                    55                     56                     57
                     A                      A                      A
 Frequencies --   867.2914               877.7667               893.4678
 Red. masses --     8.7763                 1.3467                 6.8701
 Frc consts  --     3.8895                 0.6113                 3.2312
 IR Inten    --     0.0317                 0.1834                 2.1346

                    58                     59                     60
                     A                      A                      A
 Frequencies --   902.2329               919.3286               933.0126
 Red. masses --     1.3709                 5.6824                 1.4262
 Frc consts  --     0.6575                 2.8296                 0.7315
 IR Inten    --    12.4550                 5.4835                 0.8990

                    61                     62                     63
                     A                      A                      A
 Frequencies --   934.0493               934.1505               961.6961
 Red. masses --     1.4613                 2.6318                 1.3674
 Frc consts  --     0.7511                 1.3531                 0.7451
 IR Inten    --    15.5014                 1.8472                85.7820

                    64                     65                     66
                     A                      A                      A
 Frequencies --   962.7602               996.2781              1011.1581
 Red. masses --     8.2234                 1.3247                 2.3446
 Frc consts  --     4.4910                 0.7747                 1.4124
 IR Inten    --    20.5136                 0.2547                 4.5277

                    67                     68                     69
                     A                      A                      A
 Frequencies --  1049.3595              1085.8138              1103.9598
 Red. masses --     2.6000                 4.9586                 1.2574
 Frc consts  --     1.6868                 3.4444                 0.9029
 IR Inten    --   108.3379                17.5359                 1.2644

                    70                     71                     72
                     A                      A                      A
 Frequencies --  1141.9015              1153.0892              1166.0242
 Red. masses --     3.2685                 1.6396                 2.4080
 Frc consts  --     2.5110                 1.2844                 1.9290
 IR Inten    --     0.3128                97.2186                55.8354

                    73                     74                     75
                     A                      A                      A
 Frequencies --  1200.9053              1219.9775              1250.7691
 Red. masses --     2.7406                 2.9881                 3.5458
 Frc consts  --     2.3287                 2.6203                 3.2683
 IR Inten    --    36.3901                18.7662                19.8702

                    76                     77                     78
                     A                      A                      A
 Frequencies --  1282.0624              1292.0524              1316.7100
 Red. masses --     2.5304                 1.8027                 3.3543
 Frc consts  --     2.4505                 1.7731                 3.4264
 IR Inten    --    88.1162                 2.2276                14.4583

                    79                     80                     81
                     A                      A                      A
 Frequencies --  1335.4296              1352.2791              1356.1956
 Red. masses --     2.4995                 3.3391                 2.5945
 Frc consts  --     2.6263                 3.5976                 2.8116
 IR Inten    --    14.1380                 2.9187                53.6041

                    82                     83                     84
                     A                      A                      A
 Frequencies --  1360.5416              1379.7322              1414.5719
 Red. masses --     2.6345                 3.0642                 8.7920
 Frc consts  --     2.8732                 3.4368                10.3654
 IR Inten    --     1.5661                 7.4166                 8.7801

                    85                     86                     87
                     A                      A                      A
 Frequencies --  1418.5757              1448.5042              1501.0259
 Red. masses --     5.1128                 8.9388                 6.7786
 Frc consts  --     6.0620                11.0501                 8.9984
 IR Inten    --    62.6422                45.5721               465.7880

                    88                     89                     90
                     A                      A                      A
 Frequencies --  1517.9945              1534.7149              1536.3571
 Red. masses --     8.0262                 5.1470                 9.0903
 Frc consts  --    10.8968                 7.1426                12.6418
 IR Inten    --    17.8362                76.3479               242.5502

                    91                     92                     93
                     A                      A                      A
 Frequencies --  1553.1124              1577.8241              1578.5079
 Red. masses --     7.1242                 5.5087                 5.8699
 Frc consts  --    10.1249                 8.0802                 8.6174
 IR Inten    --    50.2551                 8.2860                68.1989

                    94                     95                     96
                     A                      A                      A
 Frequencies --  1607.0603              1628.9429              2232.8992
 Red. masses --     5.3288                 9.8759                 1.0300
 Frc consts  --     8.1086                15.4397                 3.0257
 IR Inten    --    11.5271               202.3930                80.6179

                    97                     98                     99
                     A                      A                      A
 Frequencies --  2234.2661              3164.0753              3175.1572
 Red. masses --     1.0516                 1.0884                 1.0898
 Frc consts  --     3.0929                 6.4201                 6.4734
 IR Inten    --   101.6954                48.5295                41.5321

                   100                    101                    102
                     A                      A                      A
 Frequencies --  3193.8343              3220.0604              3261.4009
 Red. masses --     1.0916                 1.0948                 1.0939
 Frc consts  --     6.5608                 6.6881                 6.8555
 IR Inten    --     6.2618                 4.7887                 7.5509

                   103                    104                    105
                     A                      A                      A
 Frequencies --  3264.4997              3268.8885              3293.4374
 Red. masses --     1.0935                 1.0909                 1.1053
 Frc consts  --     6.8658                 6.8681                 7.0637
 IR Inten    --     3.3687                 1.5013                 2.4670

 - Thermochemistry -
 -------------------
 Temperature   298.150 Kelvin.  Pressure   1.00000 Atm.
 Atom     1 has atomic number 14 and mass  27.97693

 Molecular mass:   421.97860 amu.
 Principal axes and moments of inertia in atomic units:
                           1         2         3
     Eigenvalues --  5402.59493********************
           X            1.00000  -0.00207   0.00000
           Y            0.00207   1.00000   0.00000
           Z           -0.00000  -0.00000   1.00000
 This molecule is an asymmetric top.
 Rotational symmetry number  1.
 Warning -- assumption of classical behavior for rotation
           may cause significant error
 Rotational temperatures (Kelvin)      0.01603     0.00288     0.00244
 Rotational constants (GHZ):           0.33405     0.06007     0.05094
 Zero-point vibrational energy     630472.7 (Joules/Mol)
                                  150.68658 (Kcal/Mol)
 Warning -- explicit consideration of  35 degrees of freedom as
           vibrations may cause significant error
 Vibrational temperatures:     22.34    33.52    42.42    56.80    59.62
          (Kelvin)             83.25   121.93   152.43   188.08   217.96
                              237.88   252.82   272.31   295.73   328.55
                              357.73   376.93   440.00   446.57   493.35
                              521.81   566.27   580.87   602.51   646.43
                              676.20   729.46   743.93   753.32   758.59
                              773.36   777.27   841.98   845.89   866.98
                              903.25   915.21   918.99   938.94   976.32
                              994.72  1032.59  1037.10  1050.67  1053.80
                             1070.05  1076.21  1081.48  1124.02  1146.45
                             1197.18  1201.86  1207.78  1217.39  1247.84
                             1262.91  1285.50  1298.11  1322.71  1342.40
                             1343.89  1344.03  1383.66  1385.20  1433.42
                             1454.83  1509.79  1562.24  1588.35  1642.94
                             1659.04  1677.65  1727.83  1755.27  1799.58
                             1844.60  1858.97  1894.45  1921.38  1945.63
                             1951.26  1957.51  1985.12  2035.25  2041.01
                             2084.07  2159.64  2184.05  2208.11  2210.47
                             2234.58  2270.13  2271.12  2312.20  2343.68
                             3212.64  3214.61  4552.39  4568.34  4595.21
                             4632.94  4692.42  4696.88  4703.20  4738.52

 Zero-point correction=                           0.240134 (Hartree/Particle)
 Thermal correction to Energy=                    0.262325
 Thermal correction to Enthalpy=                  0.263270
 Thermal correction to Gibbs Free Energy=         0.185153
 Sum of electronic and zero-point Energies=          -2469.946129
 Sum of electronic and thermal Energies=             -2469.923938
 Sum of electronic and thermal Enthalpies=           -2469.922993
 Sum of electronic and thermal Free Energies=        -2470.001110

                     E (Thermal)             CV                S
                      KCal/Mol        Cal/Mol-Kelvin    Cal/Mol-Kelvin
 Total                  164.612             86.318            164.411
 Electronic               0.000              0.000              0.000
 Translational            0.889              2.981             44.010
 Rotational               0.889              2.981             36.995
 Vibrational            162.834             80.356             83.406
 Vibration     1          0.593              1.986              7.137
 Vibration     2          0.593              1.985              6.331
 Vibration     3          0.593              1.984              5.864
 Vibration     4          0.594              1.981              5.285
 Vibration     5          0.594              1.981              5.189
 Vibration     6          0.596              1.974              4.529
 Vibration     7          0.601              1.960              3.778
 Vibration     8          0.605              1.944              3.342
 Vibration     9          0.612              1.923              2.935
 Vibration    10          0.619              1.901              2.653
 Vibration    11          0.624              1.885              2.488
 Vibration    12          0.628              1.872              2.373
 Vibration    13          0.633              1.855              2.235
 Vibration    14          0.640              1.832              2.083
 Vibration    15          0.651              1.798              1.892
 Vibration    16          0.662              1.765              1.740
 Vibration    17          0.669              1.742              1.649
 Vibration    18          0.696              1.663              1.385
 Vibration    19          0.699              1.654              1.360
 Vibration    20          0.722              1.590              1.199
 Vibration    21          0.737              1.549              1.111
 Vibration    22          0.761              1.484              0.987
 Vibration    23          0.769              1.462              0.949
 Vibration    24          0.782              1.429              0.896
 Vibration    25          0.808              1.362              0.798
 Vibration    26          0.827              1.317              0.738
 Vibration    27          0.862              1.234              0.641
 Vibration    28          0.872              1.212              0.617
 Vibration    29          0.879              1.198              0.602
 Vibration    30          0.882              1.190              0.593
 Vibration    31          0.893              1.167              0.571
 Vibration    32          0.895              1.161              0.565
 Vibration    33          0.942              1.063              0.476
 Vibration    34          0.945              1.058              0.471
 Vibration    35          0.961              1.026              0.445

 Optimization completed.
    -- Stationary point found.
 Normal termination of Gaussian 09 at Sun Dec 29 02:15:37 2013.
