 Gaussian 09, Revision C.01,
 Gaussian 09:  EM64L-G09RevC.01 23-Sep-2011

 --------------------------------------------
 #B3LYP/6-31++G(d,p) opt scf=direct freq test
 --------------------------------------------

 Geom opt of No.72 candidate from the CEPDB database with SMILE code of
  [SiH2]1C=c2ccc3c4nsnc4c4c(cnc5cc(-c6nccs6)c6=C[SiH2]C=c6c45)c3c2=C1,
 HPC, 20131227, Shuo Dai, Gaussian09
 ----------------------------------------------------------------------
 Charge =  0 Multiplicity = 1

 SCF Done:  E(RB3LYP) =  -2516.59723398     A.U. after   30 cycles
 SCF Done:  E(RB3LYP) =  -2516.70348483     A.U. after   28 cycles
 SCF Done:  E(RB3LYP) =  -2516.78890168     A.U. after   25 cycles
 SCF Done:  E(RB3LYP) =  -2516.83234270     A.U. after   23 cycles
 SCF Done:  E(RB3LYP) =  -2516.90902640     A.U. after   19 cycles
 SCF Done:  E(RB3LYP) =  -2516.84267314     A.U. after   23 cycles
 SCF Done:  E(RB3LYP) =  -2516.94227170     A.U. after   24 cycles
 SCF Done:  E(RB3LYP) =  -2516.99104267     A.U. after   19 cycles
 SCF Done:  E(RB3LYP) =  -2517.00596052     A.U. after   18 cycles
 SCF Done:  E(RB3LYP) =  -2517.03318794     A.U. after   23 cycles
 SCF Done:  E(RB3LYP) =  -2517.26200205     A.U. after   13 cycles
 SCF Done:  E(RB3LYP) =  -2517.26200707     A.U. after   12 cycles
 SCF Done:  E(RB3LYP) =  -2517.26200973     A.U. after   11 cycles
 SCF Done:  E(RB3LYP) =  -2517.26201178     A.U. after   12 cycles
 SCF Done:  E(RB3LYP) =  -2517.26201319     A.U. after   12 cycles
 SCF Done:  E(RB3LYP) =  -2517.26201396     A.U. after   10 cycles
 SCF Done:  E(RB3LYP) =  -2517.26201445     A.U. after    9 cycles
 SCF Done:  E(RB3LYP) =  -2517.26201469     A.U. after    9 cycles
 SCF Done:  E(RB3LYP) =  -2517.26201477     A.U. after   10 cycles
 Optimization completed.
    -- Stationary point found.
 Normal termination of Gaussian 09 at Mon Dec 30 11:30:54 2013.

 ----------------------------------------------------------------------
 #N Geom=AllCheck Guess=TCheck SCRF=Check Test GenChk RB3LYP/6-31++G(d,
 p) Freq
 ----------------------------------------------------------------------

 Geom opt of No.72 candidate from the CEPDB database with SMILE code of
  [SiH2]1C=c2ccc3c4nsnc4c4c(cnc5cc(-c6nccs6)c6=C[SiH2]C=c6c45)c3c2=C1,
 HPC, 20131227, Shuo Dai, Gaussian09
 ----------------------------------------------------------------------
 Charge =  0 Multiplicity = 1

                         Standard orientation:
 ---------------------------------------------------------------------
 Center     Atomic      Atomic             Coordinates (Angstroms)
 Number     Number       Type             X           Y           Z
 ---------------------------------------------------------------------
      1         14           0       -5.199007   -3.436527   -1.127844
      2          1           0       -5.061430   -2.742261   -2.424538
      3          1           0       -5.484410   -4.887568   -1.216598
      4          6           0       -5.840006   -2.526808    0.379418
      5          6           0       -5.446282   -1.075867    0.326802
      6          6           0       -5.973588    0.210126    0.254841
      7          6           0       -5.039942    1.247446    0.204401
      8          6           0       -3.652462    0.999845    0.191559
      9          6           0       -2.703482    2.093395    0.148901
     10          7           0       -3.042021    3.377051    0.105382
     11         16           0       -1.636449    4.244558    0.061752
     12          7           0       -0.565747    2.990435    0.098267
     13          6           0       -1.270580    1.864740    0.147996
     14          6           0       -0.722327    0.516283    0.178308
     15          6           0       -1.655314   -0.538687    0.193913
     16          6           0       -1.152641   -1.876483    0.160049
     17          7           0        0.113130   -2.202912    0.134466
     18          6           0        1.048698   -1.202110    0.152100
     19          6           0        2.396036   -1.638445    0.148991
     20          6           0        3.473284   -0.755808    0.177156
     21          6           0        4.871323   -1.186099    0.174173
     22          7           0        5.888814   -0.378609    0.355595
     23          6           0        7.083245   -1.049910    0.298173
     24          6           0        7.004016   -2.396269    0.067418
     25         16           0        5.346547   -2.869541   -0.093118
     26          6           0        3.118687    0.606989    0.242347
     27          6           0        3.736008    1.965184    0.255168
     28         14           0        3.214056    2.904035   -1.285574
     29          1           0        2.942890    2.187941   -2.550476
     30          1           0        3.733319    4.283247   -1.454583
     31          6           0        2.237800    2.520529    0.262632
     32          6           0        1.800875    1.072181    0.243393
     33          6           0        0.686305    0.200238    0.176620
     34          6           0       -3.104982   -0.321112    0.224242
     35          6           0       -4.070384   -1.336930    0.319130
     36          6           0       -4.261629   -2.835288    0.379356
     37          1           0       -6.534495   -2.943861    1.104444
     38          1           0       -7.039968    0.414212    0.266343
     39          1           0       -5.368539    2.281012    0.178701
     40          1           0       -1.854150   -2.703355    0.138653
     41          1           0        2.540904   -2.714091    0.141709
     42          1           0        8.006278   -0.499192    0.435459
     43          1           0        7.806271   -3.115711   -0.016669
     44          1           0        4.531779    2.268811    0.927499
     45          1           0        1.859087    3.265436    0.951745
     46          1           0       -3.784950   -3.484627    1.109529
 ---------------------------------------------------------------------

 SCF Done:  E(RB3LYP) =  -2517.26201477     A.U. after    2 cycles

 The electronic state is 1-A.
 Alpha  occ. eigenvalues --  -88.97612 -88.92456 -66.16020 -66.14545 -14.37792
 Alpha  occ. eigenvalues --  -14.37628 -14.34528 -14.34174 -10.26557 -10.25610
 Alpha  occ. eigenvalues --  -10.25374 -10.23464 -10.23424 -10.23126 -10.22989
 Alpha  occ. eigenvalues --  -10.22859 -10.22593 -10.22531 -10.22291 -10.21965
 Alpha  occ. eigenvalues --  -10.21912 -10.21644 -10.21564 -10.21470 -10.21382
 Alpha  occ. eigenvalues --  -10.20891 -10.20815 -10.20776 -10.20648 -10.20071
 Alpha  occ. eigenvalues --  -10.19852 -10.19534  -8.02946  -7.98435  -5.99535
 Alpha  occ. eigenvalues --   -5.98951  -5.98639  -5.94828  -5.94481  -5.94168
 Alpha  occ. eigenvalues --   -5.30832  -5.29355  -3.66711  -3.66703  -3.66615
 Alpha  occ. eigenvalues --   -3.65235  -3.65213  -3.65148  -1.02538  -0.97152
 Alpha  occ. eigenvalues --   -0.95468  -0.91071  -0.90100  -0.89428  -0.86609
 Alpha  occ. eigenvalues --   -0.82693  -0.82234  -0.80560  -0.79596  -0.78093
 Alpha  occ. eigenvalues --   -0.76211  -0.72911  -0.71235  -0.70532  -0.67296
 Alpha  occ. eigenvalues --   -0.66062  -0.64279  -0.63839  -0.61878  -0.61065
 Alpha  occ. eigenvalues --   -0.59996  -0.59041  -0.56878  -0.55884  -0.54731
 Alpha  occ. eigenvalues --   -0.54408  -0.53277  -0.52604  -0.52037  -0.51555
 Alpha  occ. eigenvalues --   -0.50616  -0.49544  -0.48278  -0.46738  -0.46151
 Alpha  occ. eigenvalues --   -0.45680  -0.44482  -0.43842  -0.43463  -0.43131
 Alpha  occ. eigenvalues --   -0.42597  -0.42224  -0.41685  -0.41608  -0.41297
 Alpha  occ. eigenvalues --   -0.40526  -0.39569  -0.39261  -0.38299  -0.37917
 Alpha  occ. eigenvalues --   -0.37065  -0.36310  -0.35927  -0.35484  -0.35222
 Alpha  occ. eigenvalues --   -0.35109  -0.34330  -0.33442  -0.32619  -0.31243
 Alpha  occ. eigenvalues --   -0.30933  -0.30152  -0.29441  -0.29133  -0.28558
 Alpha  occ. eigenvalues --   -0.28192  -0.27432  -0.26497  -0.26299  -0.25166
 Alpha  occ. eigenvalues --   -0.22835  -0.22230  -0.21155
 Alpha virt. eigenvalues --   -0.09586  -0.06947  -0.05629  -0.04129  -0.02880
 Alpha virt. eigenvalues --   -0.02017  -0.01142  -0.00774  -0.00490  -0.00230
 Alpha virt. eigenvalues --    0.00207   0.00278   0.00369   0.00847   0.01131

 Mulliken atomic charges:
              1
     1  Si   0.524100
     2  H   -0.053850
     3  H   -0.065718
     4  C   -0.523906
     5  C    0.160028
     6  C   -0.338719
     7  C   -0.078749
     8  C    0.538958
     9  C    0.100099
    10  N   -0.369026
    11  S    0.913746
    12  N   -0.477528
    13  C    0.077253
    14  C    0.319378
    15  C   -0.211475
    16  C   -0.291238
    17  N   -0.052428
    18  C   -0.080515
    19  C   -0.658605
    20  C    0.054723
    21  C   -0.211444
    22  N   -0.024847
    23  C    0.038245
    24  C   -0.148263
    25  S    0.241759
    26  C   -0.355616
    27  C   -0.211777
    28  Si   0.574797
    29  H   -0.086479
    30  H   -0.057651
    31  C   -0.184972
    32  C    0.036358
    33  C   -0.065440
    34  C   -0.133473
    35  C   -0.157620
    36  C   -0.466672
    37  H    0.180151
    38  H    0.122281
    39  H    0.157825
    40  H    0.248089
    41  H    0.148171
    42  H    0.150109
    43  H    0.194850
    44  H    0.188122
    45  H    0.166419
    46  H    0.170550
 Sum of Mulliken atomic charges =  -0.00000

 Dipole moment (field-independent basis, Debye):
    X=             -1.3538    Y=             -1.1868    Z=             -0.7281  Tot=              1.9420
 Quadrupole moment (field-independent basis, Debye-Ang):
   XX=           -180.1373   YY=           -200.5907   ZZ=           -213.2576
   XY=              9.4283   XZ=             -0.7814   YZ=              0.2473

  Exact polarizability: 665.259  22.536 496.395  -2.712   1.440 222.415
 Approx polarizability: 963.168  47.600 891.719  -5.307   4.629 382.434

                     1                      2                      3
                     A                      A                      A
 Frequencies --    17.1265                25.9708                29.7570
 Red. masses --     8.5754                 8.4757                 7.1449
 Frc consts  --     0.0015                 0.0034                 0.0037
 IR Inten    --     0.3386                 1.0327                 0.2145

                     4                      5                      6
                     A                      A                      A
 Frequencies --    42.0040                59.5700                74.6981
 Red. masses --     7.3760                 7.6615                 5.9123
 Frc consts  --     0.0077                 0.0160                 0.0194
 IR Inten    --     0.4015                 0.1194                 0.4804

                     7                      8                      9
                     A                      A                      A
 Frequencies --    86.9564                95.8040               118.7876
 Red. masses --     6.3939                 6.0281                 6.3777
 Frc consts  --     0.0285                 0.0326                 0.0530
 IR Inten    --     1.8419                 0.0607                 0.1154

                    10                     11                     12
                     A                      A                      A
 Frequencies --   130.7812               141.7127               154.1888
 Red. masses --     7.1761                 6.1482                 8.0177
 Frc consts  --     0.0723                 0.0727                 0.1123
 IR Inten    --     0.7042                 0.7911                 0.1058

                    13                     14                     15
                     A                      A                      A
 Frequencies --   162.0724               193.8388               216.8829
 Red. masses --     6.8883                 4.8559                 5.8494
 Frc consts  --     0.1066                 0.1075                 0.1621
 IR Inten    --     0.7797                 0.7247                 1.1816

                    16                     17                     18
                     A                      A                      A
 Frequencies --   235.1122               244.5622               282.3077
 Red. masses --     8.3277                 4.1951                 6.9229
 Frc consts  --     0.2712                 0.1478                 0.3251
 IR Inten    --     0.5646                 1.9986                 1.0018

                    19                     20                     21
                     A                      A                      A
 Frequencies --   288.5559               313.5440               335.3076
 Red. masses --     7.0913                 5.6679                 4.6001
 Frc consts  --     0.3479                 0.3283                 0.3047
 IR Inten    --     0.7248                 0.1764                 2.4128

                    22                     23                     24
                     A                      A                      A
 Frequencies --   357.5982               368.2485               384.6128
 Red. masses --     5.0078                 5.8267                 5.7651
 Frc consts  --     0.3773                 0.4655                 0.5025
 IR Inten    --     3.3415                11.5834                 2.3037

                    25                     26                     27
                     A                      A                      A
 Frequencies --   396.2998               420.0521               428.0143
 Red. masses --     5.5482                 6.7592                 3.4667
 Frc consts  --     0.5134                 0.7027                 0.3742
 IR Inten    --     0.9023                 2.1591                 5.6071

                    28                     29                     30
                     A                      A                      A
 Frequencies --   462.2204               493.6360               502.8153
 Red. masses --     3.6928                 5.2252                 2.6720
 Frc consts  --     0.4648                 0.7502                 0.3980
 IR Inten    --     4.2446                 1.1365                 2.7300

                    31                     32                     33
                     A                      A                      A
 Frequencies --   507.8382               520.2661               523.2930
 Red. masses --     3.1425                 3.1237                 4.4362
 Frc consts  --     0.4775                 0.4982                 0.7157
 IR Inten    --     1.7657                 0.4637                 6.6637

                    34                     35                     36
                     A                      A                      A
 Frequencies --   539.8515               552.7454               562.4500
 Red. masses --     3.5850                 3.2243                 2.2707
 Frc consts  --     0.6156                 0.5804                 0.4232
 IR Inten    --     3.8512                 4.8115                 1.5373

                    37                     38                     39
                     A                      A                      A
 Frequencies --   581.2877               596.1173               599.1935
 Red. masses --     3.1431                 7.2382                 2.8904
 Frc consts  --     0.6257                 1.5155                 0.6114
 IR Inten    --     3.0330                 2.4558                 9.0288

                    40                     41                     42
                     A                      A                      A
 Frequencies --   619.1047               622.7096               627.9425
 Red. masses --     3.8296                 3.8488                 4.6853
 Frc consts  --     0.8648                 0.8793                 1.0885
 IR Inten    --    11.2413                 3.1498                 6.8021

                    43                     44                     45
                     A                      A                      A
 Frequencies --   633.5115               640.5733               645.7578
 Red. masses --     2.9960                 2.9533                 2.1915
 Frc consts  --     0.7084                 0.7140                 0.5384
 IR Inten    --     7.0331                 1.7803                13.6753

                    46                     47                     48
                     A                      A                      A
 Frequencies --   654.9997               664.6048               667.6794
 Red. masses --     1.6145                 1.7630                 4.5273
 Frc consts  --     0.4081                 0.4588                 1.1891
 IR Inten    --     7.6653                33.5206                 6.5614

                    49                     50                     51
                     A                      A                      A
 Frequencies --   676.3367               688.1593               703.2720
 Red. masses --     3.9625                 5.3287                 4.9196
 Frc consts  --     1.0679                 1.4868                 1.4336
 IR Inten    --    13.8195                11.2467                23.0071

                    52                     53                     54
                     A                      A                      A
 Frequencies --   720.2099               731.1910               735.2356
 Red. masses --     2.1302                 2.2303                 4.7701
 Frc consts  --     0.6510                 0.7025                 1.5193
 IR Inten    --    24.7494                22.0993                17.7449

                    55                     56                     57
                     A                      A                      A
 Frequencies --   749.8705               757.0048               766.2228
 Red. masses --     8.0244                 4.5599                 6.2120
 Frc consts  --     2.6585                 1.5396                 2.1488
 IR Inten    --     0.6925                 5.0349                 8.7752

                    58                     59                     60
                     A                      A                      A
 Frequencies --   783.1957               796.2056               807.4536
 Red. masses --     3.0870                 3.8849                 5.6550
 Frc consts  --     1.1156                 1.4510                 2.1723
 IR Inten    --    12.9694                 7.0857                22.1093

                    61                     62                     63
                     A                      A                      A
 Frequencies --   815.6829               826.7368               830.8124
 Red. masses --     5.7922                 9.4571                 7.2569
 Frc consts  --     2.2706                 3.8084                 2.9512
 IR Inten    --     0.3809                38.8654                34.3544

                    64                     65                     66
                     A                      A                      A
 Frequencies --   838.8852               842.3241               847.6955
 Red. masses --     2.5040                 1.5632                 2.2380
 Frc consts  --     1.0382                 0.6535                 0.9475
 IR Inten    --    19.0835                12.4830                33.1640

                    67                     68                     69
                     A                      A                      A
 Frequencies --   849.7718               885.4214               887.5219
 Red. masses --     1.4882                 2.3634                 1.6396
 Frc consts  --     0.6332                 1.0917                 0.7609
 IR Inten    --    12.5769                35.1921                31.7436

                    70                     71                     72
                     A                      A                      A
 Frequencies --   890.8960               894.0259               898.2558
 Red. masses --     1.3142                 1.6856                 3.5006
 Frc consts  --     0.6146                 0.7938                 1.6641
 IR Inten    --   114.6045                 9.1002                10.9548

                    73                     74                     75
                     A                      A                      A
 Frequencies --   901.9709               928.7537               943.5190
 Red. masses --     1.3229                 3.1756                 1.4717
 Frc consts  --     0.6341                 1.6139                 0.7719
 IR Inten    --     2.7949                42.0555                 4.1404

                    76                     77                     78
                     A                      A                      A
 Frequencies --   951.1037               957.7502               970.2514
 Red. masses --     3.1513                 1.5422                 1.9695
 Frc consts  --     1.6795                 0.8335                 1.0924
 IR Inten    --    35.9333                84.5499                60.8030

                    79                     80                     81
                     A                      A                      A
 Frequencies --   973.0923               975.0447              1001.3564
 Red. masses --     1.5621                 1.6741                 2.1938
 Frc consts  --     0.8715                 0.9378                 1.2961
 IR Inten    --     9.6277                 2.5064                11.6631

                    82                     83                     84
                     A                      A                      A
 Frequencies --  1045.8315              1055.6772              1085.4631
 Red. masses --     3.0268                 3.1575                 1.4626
 Frc consts  --     1.9505                 2.0733                 1.0154
 IR Inten    --    16.7806                34.5487                12.1234

                    85                     86                     87
                     A                      A                      A
 Frequencies --  1089.5911              1128.1377              1136.5327
 Red. masses --     3.4139                 1.8566                 1.7309
 Frc consts  --     2.3880                 1.3922                 1.3173
 IR Inten    --     0.1576                11.8231                15.3289

                    88                     89                     90
                     A                      A                      A
 Frequencies --  1145.4481              1150.5453              1155.2355
 Red. masses --     1.7135                 1.7398                 1.5584
 Frc consts  --     1.3246                 1.3569                 1.2254
 IR Inten    --    38.0761                 1.6907                22.2190

                    91                     92                     93
                     A                      A                      A
 Frequencies --  1164.9181              1186.8114              1212.4823
 Red. masses --     1.9806                 2.3770                 2.8604
 Frc consts  --     1.5836                 1.9726                 2.4776
 IR Inten    --    26.0903                41.9342                25.6721

                    94                     95                     96
                     A                      A                      A
 Frequencies --  1224.0038              1247.8053              1255.3052
 Red. masses --     3.0799                 3.1011                 5.0245
 Frc consts  --     2.7186                 2.8448                 4.6649
 IR Inten    --    11.7642                30.7639                 2.9974

                    97                     98                     99
                     A                      A                      A
 Frequencies --  1289.1984              1316.9138              1340.3143
 Red. masses --     3.5097                 3.6090                 5.9661
 Frc consts  --     3.4368                 3.6877                 6.3147
 IR Inten    --     4.5088                31.4722                12.9695

                   100                    101                    102
                     A                      A                      A
 Frequencies --  1349.1650              1357.9942              1376.8977
 Red. masses --     2.0631                 5.8776                 4.1478
 Frc consts  --     2.2126                 6.3862                 4.6331
 IR Inten    --     9.0479                15.0682                13.4703

                   103                    104                    105
                     A                      A                      A
 Frequencies --  1384.3938              1396.7602              1413.3436
 Red. masses --     6.0053                 9.2467                 7.3561
 Frc consts  --     6.7811                10.6287                 8.6575
 IR Inten    --    23.7524                 8.8726                 3.4912

                   106                    107                    108
                     A                      A                      A
 Frequencies --  1441.8396              1453.5273              1462.3714
 Red. masses --     4.3873                 4.7147                 3.1776
 Frc consts  --     5.3738                 5.8688                 4.0038
 IR Inten    --    21.2686                 3.5377                21.2262

                   109                    110                    111
                     A                      A                      A
 Frequencies --  1480.0652              1494.3400              1514.2277
 Red. masses --     5.9750                 4.3889                 6.7207
 Frc consts  --     7.7117                 5.7744                 9.0792
 IR Inten    --    26.1161                 5.0204                 2.9888

                   112                    113                    114
                     A                      A                      A
 Frequencies --  1542.4340              1548.5937              1577.4377
 Red. masses --     7.9210                 7.8516                 9.7000
 Frc consts  --    11.1031                11.0939                14.2209
 IR Inten    --    18.7860                34.1530                 3.3959

                   115                    116                    117
                     A                      A                      A
 Frequencies --  1606.8242              1619.9185              1633.5503
 Red. masses --     7.7147                 7.7549                 7.2047
 Frc consts  --    11.7357                11.9898                11.3275
 IR Inten    --     7.5407                 7.4861                 3.4903

                   118                    119                    120
                     A                      A                      A
 Frequencies --  1641.3075              2232.6699              2243.6035
 Red. masses --     7.9111                 1.0314                 1.0306
 Frc consts  --    12.5564                 3.0291                 3.0565
 IR Inten    --     6.7299               229.2069               218.7564

                   121                    122                    123
                     A                      A                      A
 Frequencies --  2272.1776              2282.3260              3173.1352
 Red. masses --     1.0540                 1.0549                 1.0889
 Frc consts  --     3.2061                 3.2376                 6.4595
 IR Inten    --    86.4712                88.0173                 4.8146

                   124                    125                    126
                     A                      A                      A
 Frequencies --  3179.1925              3196.4938              3203.7041
 Red. masses --     1.0904                 1.0894                 1.0900
 Frc consts  --     6.4936                 6.5583                 6.5917
 IR Inten    --     8.8350                 7.7536                 0.9605

                   127                    128                    129
                     A                      A                      A
 Frequencies --  3204.3619              3212.2345              3216.0132
 Red. masses --     1.0904                 1.0889                 1.0939
 Frc consts  --     6.5967                 6.6199                 6.6660
 IR Inten    --     5.5141                 5.6717                 6.9601

                   130                    131                    132
                     A                      A                      A
 Frequencies --  3222.7656              3229.5627              3273.2141
 Red. masses --     1.0903                 1.0909                 1.0981
 Frc consts  --     6.6721                 6.7039                 6.9320
 IR Inten    --     1.8691                16.2572                 0.8519

 - Thermochemistry -
 -------------------
 Temperature   298.150 Kelvin.  Pressure   1.00000 Atm.
 Atom     1 has atomic number 14 and mass  27.97693

 Molecular mass:   478.01985 amu.
 Principal axes and moments of inertia in atomic units:
                           1         2         3
     Eigenvalues --  9582.50348********************
           X            0.99991   0.01343   0.00016
           Y           -0.01343   0.99991  -0.00059
           Z           -0.00017   0.00059   1.00000
 This molecule is an asymmetric top.
 Rotational symmetry number  1.
 Warning -- assumption of classical behavior for rotation
           may cause significant error
 Rotational temperatures (Kelvin)      0.00904     0.00319     0.00241
 Rotational constants (GHZ):           0.18834     0.06644     0.05030
 Zero-point vibrational energy     815343.9 (Joules/Mol)
                                  194.87187 (Kcal/Mol)
 Warning -- explicit consideration of  40 degrees of freedom as
           vibrations may cause significant error
 Vibrational temperatures:     24.64    37.37    42.81    60.43    85.71
          (Kelvin)            107.47   125.11   137.84   170.91   188.16
                              203.89   221.84   233.19   278.89   312.05
                              338.27   351.87   406.18   415.17   451.12
                              482.43   514.50   529.83   553.37   570.19
                              604.36   615.82   665.03   710.23   723.44
                              730.66   748.55   752.90   776.72   795.28
                              809.24   836.34   857.68   862.10   890.75
                              895.94   903.47   911.48   921.64   929.10
                              942.40   956.22   960.64   973.10   990.11
                             1011.85  1036.22  1052.02  1057.84  1078.90
                             1089.16  1102.42  1126.84  1145.56  1161.74
                             1173.58  1189.49  1195.35  1206.97  1211.92
                             1219.64  1222.63  1273.92  1276.94  1281.80
                             1286.30  1292.39  1297.73  1336.27  1357.51
                             1368.42  1377.99  1395.97  1400.06  1402.87
                             1440.73  1504.72  1518.88  1561.74  1567.68
                             1623.14  1635.21  1648.04  1655.38  1662.12
                             1676.06  1707.55  1744.49  1761.07  1795.31
                             1806.10  1854.87  1894.74  1928.41  1941.15
                             1953.85  1981.05  1991.83  2009.62  2033.48
                             2074.48  2091.30  2104.02  2129.48  2150.02
                             2178.63  2219.22  2228.08  2269.58  2311.86
                             2330.70  2350.31  2361.47  3212.31  3228.04
                             3269.15  3283.75  4565.43  4574.14  4599.04
                             4609.41  4610.36  4621.68  4627.12  4636.84
                             4646.61  4709.42

 Zero-point correction=                           0.310548 (Hartree/Particle)
 Thermal correction to Energy=                    0.335390
 Thermal correction to Enthalpy=                  0.336334
 Thermal correction to Gibbs Free Energy=         0.254297
 Sum of electronic and zero-point Energies=          -2516.951467
 Sum of electronic and thermal Energies=             -2516.926625
 Sum of electronic and thermal Enthalpies=           -2516.925680
 Sum of electronic and thermal Free Energies=        -2517.007717

                     E (Thermal)             CV                S
                      KCal/Mol        Cal/Mol-Kelvin    Cal/Mol-Kelvin
 Total                  210.461            101.848            172.662
 Electronic               0.000              0.000              0.000
 Translational            0.889              2.981             44.381
 Rotational               0.889              2.981             37.477
 Vibrational            208.683             95.887             90.803
 Vibration     1          0.593              1.986              6.942
 Vibration     2          0.593              1.985              6.116
 Vibration     3          0.594              1.984              5.846
 Vibration     4          0.595              1.980              5.162
 Vibration     5          0.597              1.974              4.471
 Vibration     6          0.599              1.966              4.026
 Vibration     7          0.601              1.958              3.727
 Vibration     8          0.603              1.952              3.538
 Vibration     9          0.609              1.934              3.120
 Vibration    10          0.612              1.923              2.935
 Vibration    11          0.615              1.912              2.781
 Vibration    12          0.620              1.898              2.620
 Vibration    13          0.622              1.889              2.525
 Vibration    14          0.635              1.848              2.191
 Vibration    15          0.646              1.815              1.985
 Vibration    16          0.655              1.787              1.840
 Vibration    17          0.660              1.772              1.769
 Vibration    18          0.681              1.706              1.520
 Vibration    19          0.685              1.695              1.482
 Vibration    20          0.701              1.648              1.344
 Vibration    21          0.716              1.605              1.234
 Vibration    22          0.733              1.560              1.133
 Vibration    23          0.741              1.538              1.087
 Vibration    24          0.754              1.503              1.021
 Vibration    25          0.763              1.478              0.976
 Vibration    26          0.783              1.427              0.892
 Vibration    27          0.790              1.409              0.865
 Vibration    28          0.820              1.334              0.760
 Vibration    29          0.849              1.264              0.674
 Vibration    30          0.858              1.244              0.651
 Vibration    31          0.863              1.233              0.639
 Vibration    32          0.875              1.205              0.609
 Vibration    33          0.878              1.198              0.602
 Vibration    34          0.895              1.162              0.566
 Vibration    35          0.908              1.134              0.539
 Vibration    36          0.918              1.113              0.519
 Vibration    37          0.938              1.072              0.483
 Vibration    38          0.954              1.040              0.456
 Vibration    39          0.957              1.034              0.451
 Vibration    40          0.979              0.992              0.418

 Normal termination of Gaussian 09 at Mon Dec 30 14:11:13 2013.
