 Gaussian 09, Revision C.01,
 Gaussian 09:  EM64L-G09RevC.01 23-Sep-2011

 --------------------------------------------
 #B3LYP/6-31++G(d,p) opt scf=direct freq test
 --------------------------------------------

 Geom opt of No.98 candidate from the CEPDB database with SMILE code of
  [SiH2]1C=c2c(cc3c4nsnc4c4c5[SiH2]C=Cc5c5cscc5c4c3c2=C1)-c1cncs1, HPC,
  20131227, Shuo Dai, Gaussian09
 ----------------------------------------------------------------------
 Charge =  0 Multiplicity = 1

 SCF Done:  E(RB3LYP) =  -2821.28925966     A.U. after   35 cycles
 SCF Done:  E(RB3LYP) =  -2821.38787333     A.U. after   28 cycles
 SCF Done:  E(RB3LYP) =  -2821.52195423     A.U. after   26 cycles
 SCF Done:  E(RB3LYP) =  -2821.56744163     A.U. after   23 cycles
 SCF Done:  E(RB3LYP) =  -2821.67166408     A.U. after   23 cycles
 SCF Done:  E(RB3LYP) =  -2821.74664480     A.U. after   24 cycles
 SCF Done:  E(RB3LYP) =  -2821.79521189     A.U. after   18 cycles
 SCF Done:  E(RB3LYP) =  -2821.84818469     A.U. after   24 cycles
 SCF Done:  E(RB3LYP) =  -2821.90270407     A.U. after   24 cycles
 SCF Done:  E(RB3LYP) =  -2821.93149391     A.U. after   19 cycles
 SCF Done:  E(RB3LYP) =  -2822.00530294     A.U. after   14 cycles
 SCF Done:  E(RB3LYP) =  -2822.00533702     A.U. after   13 cycles
 SCF Done:  E(RB3LYP) =  -2822.00537554     A.U. after   14 cycles
 SCF Done:  E(RB3LYP) =  -2822.00539406     A.U. after   14 cycles
 SCF Done:  E(RB3LYP) =  -2822.00540535     A.U. after   14 cycles
 SCF Done:  E(RB3LYP) =  -2822.00541245     A.U. after   13 cycles
 SCF Done:  E(RB3LYP) =  -2822.00541507     A.U. after   12 cycles
 SCF Done:  E(RB3LYP) =  -2822.00541545     A.U. after   12 cycles
 SCF Done:  E(RB3LYP) =  -2822.00541559     A.U. after   11 cycles
 Optimization completed.
    -- Stationary point found.
 Normal termination of Gaussian 09 at Mon Dec 30 11:54:45 2013.

 ----------------------------------------------------------------------
 #N Geom=AllCheck Guess=TCheck SCRF=Check Test GenChk RB3LYP/6-31++G(d,
 p) Freq
 ----------------------------------------------------------------------

 Geom opt of No.98 candidate from the CEPDB database with SMILE code of
  [SiH2]1C=c2c(cc3c4nsnc4c4c5[SiH2]C=Cc5c5cscc5c4c3c2=C1)-c1cncs1, HPC,
  20131227, Shuo Dai, Gaussian09
 ----------------------------------------------------------------------
 Charge =  0 Multiplicity = 1

                         Standard orientation:
 ---------------------------------------------------------------------
 Center     Atomic      Atomic             Coordinates (Angstroms)
 Number     Number       Type             X           Y           Z
 ---------------------------------------------------------------------
      1         14           0       -2.262083    3.490725    1.361162
      2          1           0       -2.167344    4.773298    0.612542
      3          1           0       -2.614018    3.794320    2.773294
      4          6           0       -3.367964    2.197263    0.600736
      5          6           0       -2.604429    1.108831    0.298111
      6          6           0       -3.107901   -0.213469   -0.087167
      7          6           0       -2.220311   -1.243726   -0.168418
      8          6           0       -0.789403   -1.072859   -0.053751
      9          6           0        0.053988   -2.238717   -0.076687
     10          7           0       -0.355884   -3.504022   -0.184816
     11         16           0        0.989899   -4.450044   -0.051129
     12          7           0        2.126593   -3.263772    0.146366
     13          6           0        1.472608   -2.102278    0.114013
     14          6           0        2.091767   -0.804000    0.141509
     15          6           0        3.511516   -0.703594    0.236769
     16         14           0        4.924452   -2.032894    0.494861
     17          1           0        5.406579   -2.068205   -0.949461
     18          1           0        7.195983   -0.600822    1.211478
     19          6           0        6.141009   -0.340897    1.195091
     20          6           0        5.606340    0.297702    0.085590
     21          6           0        4.140984    0.490685    0.012115
     22          6           0        3.399996    1.640555   -0.405490
     23          6           0        3.885628    2.841167   -0.894495
     24         16           0        2.605959    3.854978   -1.424869
     25          6           0        1.402532    2.715333   -0.979060
     26          6           0        1.941251    1.563285   -0.422127
     27          6           0        1.259831    0.330408   -0.023674
     28          6           0       -0.192211    0.181289    0.098048
     29          6           0       -1.107089    1.277893    0.491629
     30          6           0       -0.745477    2.423605    1.135318
     31          6           0       -4.528760   -0.479508   -0.359034
     32          6           0       -5.043577   -1.145159   -1.447885
     33          7           0       -6.400714   -1.358490   -1.464244
     34          6           0       -6.952470   -0.868039   -0.391887
     35         16           0       -5.855023   -0.098635    0.725721
     36          1           0       -4.445894    2.186711    0.507294
     37          1           0       -2.576089   -2.252385   -0.347735
     38          1           0        5.666662   -0.227135    2.165561
     39          1           0        6.221717    0.476869   -0.795352
     40          1           0        4.915252    3.156132   -0.987716
     41          1           0        0.366684    2.951290   -1.161559
     42          1           0        0.284592    2.645999    1.377588
     43          1           0       -4.443687   -1.485280   -2.283618
     44          1           0       -8.014084   -0.911828   -0.178864
 ---------------------------------------------------------------------

 SCF Done:  E(RB3LYP) =  -2822.00541559     A.U. after    2 cycles

 The electronic state is 1-A.
 Alpha  occ. eigenvalues --  -88.98399 -88.94072 -88.93169 -66.14131 -66.13176
 Alpha  occ. eigenvalues --  -14.38573 -14.38500 -14.35299 -10.26235 -10.25697
 Alpha  occ. eigenvalues --  -10.25621 -10.24457 -10.24348 -10.23833 -10.23797
 Alpha  occ. eigenvalues --  -10.23350 -10.23320 -10.23292 -10.23207 -10.23167
 Alpha  occ. eigenvalues --  -10.23150 -10.23149 -10.22781 -10.22721 -10.22668
 Alpha  occ. eigenvalues --  -10.22364 -10.22236 -10.21725 -10.19704 -10.19220
 Alpha  occ. eigenvalues --  -10.19089  -8.03710  -7.99952  -7.99124  -6.00289
 Alpha  occ. eigenvalues --   -5.99710  -5.99416  -5.96340  -5.95959  -5.95757
 Alpha  occ. eigenvalues --   -5.95514  -5.95168  -5.94868  -5.28963  -5.27395
 Alpha  occ. eigenvalues --   -3.64831  -3.64802  -3.64797  -3.63590  -3.63111
 Alpha  occ. eigenvalues --   -3.62931  -1.03090  -0.97559  -0.91862  -0.90864
 Alpha  occ. eigenvalues --   -0.89509  -0.86956  -0.85402  -0.82783  -0.81481
 Alpha  occ. eigenvalues --   -0.79108  -0.78845  -0.76981  -0.74840  -0.74613
 Alpha  occ. eigenvalues --   -0.73032  -0.71124  -0.68123  -0.65691  -0.64988
 Alpha  occ. eigenvalues --   -0.62783  -0.61624  -0.60087  -0.59180  -0.58660
 Alpha  occ. eigenvalues --   -0.57752  -0.56079  -0.55021  -0.54139  -0.54006
 Alpha  occ. eigenvalues --   -0.51702  -0.50842  -0.50143  -0.49047  -0.47715
 Alpha  occ. eigenvalues --   -0.47418  -0.46644  -0.46304  -0.45894  -0.44572
 Alpha  occ. eigenvalues --   -0.44257  -0.43370  -0.43239  -0.42188  -0.41828
 Alpha  occ. eigenvalues --   -0.41635  -0.41552  -0.40623  -0.40174  -0.39432
 Alpha  occ. eigenvalues --   -0.38166  -0.37880  -0.37368  -0.37073  -0.36762
 Alpha  occ. eigenvalues --   -0.36617  -0.34483  -0.34031  -0.33795  -0.33115
 Alpha  occ. eigenvalues --   -0.32565  -0.31883  -0.31693  -0.31250  -0.30742
 Alpha  occ. eigenvalues --   -0.29449  -0.29023  -0.28496  -0.27969  -0.25889
 Alpha  occ. eigenvalues --   -0.25460  -0.23042  -0.21512  -0.19500
 Alpha virt. eigenvalues --   -0.11686  -0.09124  -0.07764  -0.06049  -0.04688
 Alpha virt. eigenvalues --   -0.02960  -0.01720  -0.01292  -0.01183  -0.00911
 Alpha virt. eigenvalues --   -0.00716  -0.00210  -0.00012   0.00411   0.00725

 Mulliken atomic charges:
              1
     1  Si   1.009723
     2  H   -0.113085
     3  H   -0.094688
     4  C   -0.373651
     5  C   -0.373437
     6  C    0.045927
     7  C   -0.551066
     8  C    0.162977
     9  C   -0.105500
    10  N   -0.399907
    11  S    0.894482
    12  N   -0.358100
    13  C   -0.147287
    14  C    0.326251
    15  C   -0.658324
    16  Si   0.380812
    17  H   -0.052711
    18  H    0.170810
    19  C   -0.760283
    20  C    0.008695
    21  C    0.286974
    22  C    0.277564
    23  C   -0.319916
    24  S    0.114611
    25  C   -0.183087
    26  C   -0.186995
    27  C    0.010446
    28  C    0.024791
    29  C   -0.157799
    30  C   -0.122196
    31  C   -0.179513
    32  C   -0.410928
    33  N   -0.066327
    34  C   -0.152513
    35  S    0.431673
    36  H    0.071158
    37  H    0.209487
    38  H    0.242105
    39  H    0.211960
    40  H    0.173115
    41  H    0.213276
    42  H    0.141587
    43  H    0.172547
    44  H    0.186338
 Sum of Mulliken atomic charges =  -0.00000

 Dipole moment (field-independent basis, Debye):
    X=              2.0701    Y=              3.4646    Z=              1.0426  Tot=              4.1684
 Quadrupole moment (field-independent basis, Debye-Ang):
   XX=           -201.3568   YY=           -215.4085   ZZ=           -218.9817
   XY=              4.7062   XZ=             -9.3078   YZ=             -1.1703

  Exact polarizability: 650.847 -11.673 519.392   8.906   3.222 253.198
 Approx polarizability: 990.543  10.0651030.116  25.948   2.349 461.938

                     1                      2                      3
                     A                      A                      A
 Frequencies --    22.2070                32.4915                40.6422
 Red. masses --     8.4316                 8.8514                 8.1545
 Frc consts  --     0.0024                 0.0055                 0.0079
 IR Inten    --     0.1399                 0.2801                 0.2738

                     4                      5                      6
                     A                      A                      A
 Frequencies --    53.5314                62.5951                67.1179
 Red. masses --     6.7356                 8.3698                 7.3753
 Frc consts  --     0.0114                 0.0193                 0.0196
 IR Inten    --     1.2991                 0.5651                 0.7514

                     7                      8                      9
                     A                      A                      A
 Frequencies --    80.0123                95.3104               117.3473
 Red. masses --     7.5264                 6.7900                 4.8428
 Frc consts  --     0.0284                 0.0363                 0.0393
 IR Inten    --     0.1445                 0.3763                 1.3636

                    10                     11                     12
                     A                      A                      A
 Frequencies --   120.8935               144.1584               163.4066
 Red. masses --     8.0052                 4.7262                 6.5676
 Frc consts  --     0.0689                 0.0579                 0.1033
 IR Inten    --     2.0934                 0.2019                 2.1603

                    13                     14                     15
                     A                      A                      A
 Frequencies --   175.1501               177.2528               193.2836
 Red. masses --     5.3464                 7.6506                 5.6504
 Frc consts  --     0.0966                 0.1416                 0.1244
 IR Inten    --     0.5536                 4.8674                 4.4364

                    16                     17                     18
                     A                      A                      A
 Frequencies --   208.7160               223.0059               230.0433
 Red. masses --     8.6727                 5.2182                 7.7586
 Frc consts  --     0.2226                 0.1529                 0.2419
 IR Inten    --     1.0476                 0.1536                 0.3948

                    19                     20                     21
                     A                      A                      A
 Frequencies --   258.5380               278.3811               288.1851
 Red. masses --     5.2924                 7.8302                 6.9611
 Frc consts  --     0.2084                 0.3575                 0.3406
 IR Inten    --     0.8072                 4.0393                 1.3707

                    22                     23                     24
                     A                      A                      A
 Frequencies --   303.4993               327.3108               332.9145
 Red. masses --     7.4993                 5.4591                 9.2602
 Frc consts  --     0.4070                 0.3446                 0.6047
 IR Inten    --     3.0854                 0.2376                 2.9043

                    25                     26                     27
                     A                      A                      A
 Frequencies --   360.7775               372.7814               401.9525
 Red. masses --     5.3466                 5.7823                 4.5066
 Frc consts  --     0.4100                 0.4734                 0.4290
 IR Inten    --     0.6138                 0.5845                 2.4974

                    28                     29                     30
                     A                      A                      A
 Frequencies --   409.0640               437.8009               468.7492
 Red. masses --     6.6103                 5.4820                 6.8863
 Frc consts  --     0.6517                 0.6191                 0.8915
 IR Inten    --     4.7946                 2.3137                14.3875

                    31                     32                     33
                     A                      A                      A
 Frequencies --   469.5254               493.3234               501.7501
 Red. masses --     5.7781                 5.8079                 6.9125
 Frc consts  --     0.7505                 0.8328                 1.0253
 IR Inten    --     2.3773                 6.7452                 4.6290

                    34                     35                     36
                     A                      A                      A
 Frequencies --   520.0510               547.2885               558.2114
 Red. masses --     7.9485                 5.4698                 2.0313
 Frc consts  --     1.2666                 0.9653                 0.3729
 IR Inten    --     4.7900                 4.3153                10.0724

                    37                     38                     39
                     A                      A                      A
 Frequencies --   576.8464               580.5225               589.2499
 Red. masses --     4.6988                 3.2758                 6.3334
 Frc consts  --     0.9212                 0.6504                 1.2956
 IR Inten    --    14.5722                 7.4668                16.0102

                    40                     41                     42
                     A                      A                      A
 Frequencies --   594.8294               617.4480               621.9035
 Red. masses --     4.1345                 4.1537                 5.4003
 Frc consts  --     0.8619                 0.9330                 1.2306
 IR Inten    --    10.2898                 4.4777                 3.9500

                    43                     44                     45
                     A                      A                      A
 Frequencies --   639.8484               649.8042               652.0477
 Red. masses --     2.2554                 1.6118                 1.5986
 Frc consts  --     0.5440                 0.4010                 0.4004
 IR Inten    --    13.0190                 6.0155                15.0609

                    46                     47                     48
                     A                      A                      A
 Frequencies --   654.7861               671.2797               683.3286
 Red. masses --     1.3873                 4.9763                 4.5354
 Frc consts  --     0.3504                 1.3212                 1.2477
 IR Inten    --    13.8060                 8.5621                14.1666

                    49                     50                     51
                     A                      A                      A
 Frequencies --   690.1532               702.8147               724.3750
 Red. masses --     4.3418                 5.0667                 1.5806
 Frc consts  --     1.2185                 1.4745                 0.4886
 IR Inten    --     4.5639                11.2394                15.9788

                    52                     53                     54
                     A                      A                      A
 Frequencies --   732.5449               733.3122               744.8021
 Red. masses --     5.2033                 5.5388                 3.9885
 Frc consts  --     1.6451                 1.7549                 1.3036
 IR Inten    --     4.6134                 2.1794                 9.0944

                    55                     56                     57
                     A                      A                      A
 Frequencies --   753.3333               766.2617               773.3925
 Red. masses --     2.1968                 2.2879                 2.0982
 Frc consts  --     0.7345                 0.7915                 0.7394
 IR Inten    --     6.6268                34.2457                19.4803

                    58                     59                     60
                     A                      A                      A
 Frequencies --   783.8531               791.9513               797.3434
 Red. masses --     1.4955                 1.9931                 1.2179
 Frc consts  --     0.5414                 0.7365                 0.4562
 IR Inten    --    37.4746                13.8629                31.5517

                    61                     62                     63
                     A                      A                      A
 Frequencies --   800.2446               804.6568               810.8626
 Red. masses --     3.7724                 3.8936                 4.2822
 Frc consts  --     1.4233                 1.4853                 1.6589
 IR Inten    --     4.2515                 9.0830                 9.1303

                    64                     65                     66
                     A                      A                      A
 Frequencies --   823.1633               832.3088               836.2486
 Red. masses --     6.2158                 4.1198                 3.9523
 Frc consts  --     2.4815                 1.6815                 1.6284
 IR Inten    --    35.7113                13.0785                14.4299

                    67                     68                     69
                     A                      A                      A
 Frequencies --   850.1074               869.2286               875.8015
 Red. masses --     6.0688                 2.4097                 2.1542
 Frc consts  --     2.5840                 1.0727                 0.9735
 IR Inten    --    17.6434                19.5091                58.7088

                    70                     71                     72
                     A                      A                      A
 Frequencies --   882.5878               886.4325               896.0304
 Red. masses --     2.3862                 2.0925                 4.4437
 Frc consts  --     1.0952                 0.9687                 2.1020
 IR Inten    --    30.2687                12.9242                40.4903

                    73                     74                     75
                     A                      A                      A
 Frequencies --   910.1543               923.8209               932.3213
 Red. masses --     3.9857                 4.5085                 1.2139
 Frc consts  --     1.9453                 2.2670                 0.6217
 IR Inten    --     1.4290                 2.7028                11.3862

                    76                     77                     78
                     A                      A                      A
 Frequencies --   934.8443               953.4068               963.8029
 Red. masses --     1.4561                 1.0858                 1.2253
 Frc consts  --     0.7498                 0.5815                 0.6706
 IR Inten    --    12.1088               162.6824                 1.2387

                    79                     80                     81
                     A                      A                      A
 Frequencies --  1013.2706              1051.9939              1070.1783
 Red. masses --     2.2308                 5.1829                 3.3816
 Frc consts  --     1.3494                 3.3795                 2.2818
 IR Inten    --     0.9420                 1.6330                17.8410

                    82                     83                     84
                     A                      A                      A
 Frequencies --  1090.4325              1118.1118              1151.8796
 Red. masses --     2.0386                 3.1849                 2.1537
 Frc consts  --     1.4282                 2.3460                 1.6837
 IR Inten    --     8.0917                 4.5481                14.7004

                    85                     86                     87
                     A                      A                      A
 Frequencies --  1188.9146              1194.2551              1199.3054
 Red. masses --     1.6208                 1.7417                 2.0151
 Frc consts  --     1.3499                 1.4636                 1.7077
 IR Inten    --     2.7129                13.1714                19.8107

                    88                     89                     90
                     A                      A                      A
 Frequencies --  1218.5399              1238.9478              1259.6990
 Red. masses --     4.1426                 2.3814                 1.4690
 Frc consts  --     3.6241                 2.1537                 1.3734
 IR Inten    --     9.1473                14.5168                 9.3502

                    91                     92                     93
                     A                      A                      A
 Frequencies --  1261.0670              1286.8228              1306.5145
 Red. masses --     1.3919                 2.4199                 2.4134
 Frc consts  --     1.3042                 2.3609                 2.4272
 IR Inten    --    25.2968                 7.8736                 5.1438

                    94                     95                     96
                     A                      A                      A
 Frequencies --  1331.8463              1343.2342              1357.1217
 Red. masses --     2.0054                 5.3388                 7.0631
 Frc consts  --     2.0959                 5.6754                 7.6644
 IR Inten    --     9.3203                 1.5193                23.7232

                    97                     98                     99
                     A                      A                      A
 Frequencies --  1376.1408              1381.5848              1409.3261
 Red. masses --     3.2222                 8.0676                 4.0626
 Frc consts  --     3.5952                 9.0730                 4.7542
 IR Inten    --     2.6794                 2.6165                 5.3322

                   100                    101                    102
                     A                      A                      A
 Frequencies --  1415.6503              1432.4844              1460.5162
 Red. masses --     9.8767                 3.4073                 3.9397
 Frc consts  --    11.6620                 4.1194                 4.9514
 IR Inten    --    18.8323                10.6602                 9.8132

                   103                    104                    105
                     A                      A                      A
 Frequencies --  1465.5723              1482.0354              1509.8257
 Red. masses --     6.7812                 8.8704                10.4224
 Frc consts  --     8.5816                11.4792                13.9982
 IR Inten    --    27.8748                 9.5163                47.2441

                   106                    107                    108
                     A                      A                      A
 Frequencies --  1516.5654              1545.0880              1547.7913
 Red. masses --     9.8081                 7.9170                 2.5576
 Frc consts  --    13.2909                11.1357                 3.6101
 IR Inten    --    25.0660                11.8521                 1.4269

                   109                    110                    111
                     A                      A                      A
 Frequencies --  1551.2234              1570.6408              1591.4872
 Red. masses --     5.4472                11.2124                 8.7403
 Frc consts  --     7.7228                16.2968                13.0431
 IR Inten    --    24.6207                 1.2999                14.1179

                   112                    113                    114
                     A                      A                      A
 Frequencies --  1600.9920              1639.0128              2029.9156
 Red. masses --     9.2770                 7.1122                 1.0418
 Frc consts  --    14.0099                11.2570                 2.5293
 IR Inten    --    10.4117                 2.7564               269.2077

                   115                    116                    117
                     A                      A                      A
 Frequencies --  2220.5819              2228.4390              3150.1646
 Red. masses --     1.0435                 1.0374                 1.0565
 Frc consts  --     3.0315                 3.0353                 6.1771
 IR Inten    --   122.7544               159.7380                 0.0240

                   118                    119                    120
                     A                      A                      A
 Frequencies --  3165.3370              3217.2015              3233.6573
 Red. masses --     1.0894                 1.0910                 1.0920
 Frc consts  --     6.4311                 6.6533                 6.7273
 IR Inten    --    14.8461                10.5532                 2.8211

                   121                    122                    123
                     A                      A                      A
 Frequencies --  3237.2263              3239.4674              3239.7040
 Red. masses --     1.0953                 1.0906                 1.1165
 Frc consts  --     6.7626                 6.7430                 6.9040
 IR Inten    --     0.8301                 0.2164                 5.2226

                   124                    125                    126
                     A                      A                      A
 Frequencies --  3247.2536              3267.2141              3295.1595
 Red. masses --     1.0909                 1.0934                 1.0932
 Frc consts  --     6.7777                 6.8768                 6.9935
 IR Inten    --     0.1129                 1.7360                 1.3768

 - Thermochemistry -
 -------------------
 Temperature   298.150 Kelvin.  Pressure   1.00000 Atm.
 Atom     1 has atomic number 14 and mass  27.97693

 Molecular mass:   482.98102 amu.
 Principal axes and moments of inertia in atomic units:
                           1         2         3
     Eigenvalues --  ******************************
           X            1.00000  -0.00184   0.00121
           Y            0.00183   0.99997   0.00703
           Z           -0.00122  -0.00703   0.99997
 This molecule is an asymmetric top.
 Rotational symmetry number  1.
 Warning -- assumption of classical behavior for rotation
           may cause significant error
 Rotational temperatures (Kelvin)      0.00839     0.00366     0.00272
 Rotational constants (GHZ):           0.17483     0.07632     0.05662
 Zero-point vibrational energy     764406.1 (Joules/Mol)
                                  182.69744 (Kcal/Mol)
 Warning -- explicit consideration of  41 degrees of freedom as
           vibrations may cause significant error
 Vibrational temperatures:     31.95    46.75    58.48    77.02    90.06
          (Kelvin)             96.57   115.12   137.13   168.84   173.94
                              207.41   235.11   252.00   255.03   278.09
                              300.30   320.86   330.98   371.98   400.53
                              414.63   436.67   470.93   478.99   519.08
                              536.35   578.32   588.55   629.90   674.42
                              675.54   709.78   721.91   748.24   787.43
                              803.14   829.95   835.24   847.80   855.83
                              888.37   894.78   920.60   934.92   938.15
                              942.09   965.82   983.16   992.98  1011.19
                             1042.21  1053.97  1055.07  1071.60  1083.88
                             1102.48  1112.74  1127.79  1139.44  1147.20
                             1151.37  1157.72  1166.65  1184.35  1197.51
                             1203.17  1223.11  1250.62  1260.08  1269.85
                             1275.38  1289.19  1309.51  1329.17  1341.40
                             1345.03  1371.74  1386.70  1457.87  1513.58
                             1539.75  1568.89  1608.71  1657.30  1710.58
                             1718.26  1725.53  1753.20  1782.57  1812.42
                             1814.39  1851.45  1879.78  1916.23  1932.61
                             1952.59  1979.96  1987.79  2027.70  2036.80
                             2061.02  2101.35  2108.63  2132.32  2172.30
                             2182.00  2223.03  2226.92  2231.86  2259.80
                             2289.79  2303.47  2358.17  2920.59  3194.92
                             3206.22  4532.38  4554.21  4628.83  4652.51
                             4657.64  4660.87  4661.21  4672.07  4700.79
                             4740.99

 Zero-point correction=                           0.291147 (Hartree/Particle)
 Thermal correction to Energy=                    0.316608
 Thermal correction to Enthalpy=                  0.317552
 Thermal correction to Gibbs Free Energy=         0.234955
 Sum of electronic and zero-point Energies=          -2821.714269
 Sum of electronic and thermal Energies=             -2821.688808
 Sum of electronic and thermal Enthalpies=           -2821.687864
 Sum of electronic and thermal Free Energies=        -2821.770460

                     E (Thermal)             CV                S
                      KCal/Mol        Cal/Mol-Kelvin    Cal/Mol-Kelvin
 Total                  198.674            101.846            173.839
 Electronic               0.000              0.000              0.000
 Translational            0.889              2.981             44.412
 Rotational               0.889              2.981             37.296
 Vibrational            196.897             95.885             92.131
 Vibration     1          0.593              1.985              6.426
 Vibration     2          0.594              1.983              5.671
 Vibration     3          0.594              1.981              5.228
 Vibration     4          0.596              1.976              4.682
 Vibration     5          0.597              1.972              4.374
 Vibration     6          0.598              1.970              4.236
 Vibration     7          0.600              1.963              3.891
 Vibration     8          0.603              1.953              3.548
 Vibration     9          0.608              1.935              3.144
 Vibration    10          0.609              1.932              3.086
 Vibration    11          0.616              1.909              2.748
 Vibration    12          0.623              1.887              2.510
 Vibration    13          0.627              1.873              2.379
 Vibration    14          0.628              1.870              2.357
 Vibration    15          0.635              1.849              2.196
 Vibration    16          0.642              1.827              2.055
 Vibration    17          0.649              1.806              1.935
 Vibration    18          0.652              1.795              1.879
 Vibration    19          0.667              1.748              1.672
 Vibration    20          0.679              1.714              1.544
 Vibration    21          0.685              1.696              1.485
 Vibration    22          0.695              1.667              1.398
 Vibration    23          0.711              1.621              1.273
 Vibration    24          0.715              1.610              1.246
 Vibration    25          0.735              1.553              1.119
 Vibration    26          0.744              1.528              1.068
 Vibration    27          0.768              1.466              0.956
 Vibration    28          0.773              1.451              0.930
 Vibration    29          0.798              1.388              0.834
 Vibration    30          0.826              1.319              0.741
 Vibration    31          0.827              1.318              0.739
 Vibration    32          0.849              1.265              0.675
 Vibration    33          0.857              1.246              0.654
 Vibration    34          0.875              1.206              0.610
 Vibration    35          0.902              1.146              0.550
 Vibration    36          0.914              1.122              0.527
 Vibration    37          0.933              1.081              0.491
 Vibration    38          0.937              1.073              0.484
 Vibration    39          0.947              1.055              0.469
 Vibration    40          0.953              1.043              0.459
 Vibration    41          0.977              0.995              0.421

 Normal termination of Gaussian 09 at Mon Dec 30 14:31:15 2013.
