 Gaussian 09, Revision C.01,
 Gaussian 09:  EM64L-G09RevC.01 23-Sep-2011

 --------------------------------------------
 #B3LYP/6-31++G(d,p) opt scf=direct freq test
 --------------------------------------------

 Geom opt of No.35 candidate from the CEPDB database with SMILE code of
  C1ccc2csc(c12)-c1cnc(-c2cnc(s2)-c2scc3ccsc23)c2nsnc12, HPC, 20131227,
  Shuo Dai, Gaussian09
 ----------------------------------------------------------------------
 Charge =  0 Multiplicity = 1

 SCF Done:  E(RB3LYP) =  -3016.13787817     A.U. after   25 cycles
 SCF Done:  E(RB3LYP) =  -3016.17680649     A.U. after   17 cycles
 SCF Done:  E(RB3LYP) =  -3016.18641910     A.U. after   17 cycles
 SCF Done:  E(RB3LYP) =  -3016.19487994     A.U. after   17 cycles
 SCF Done:  E(RB3LYP) =  -3016.19521903     A.U. after   13 cycles
 SCF Done:  E(RB3LYP) =  -3016.19529181     A.U. after   12 cycles
 SCF Done:  E(RB3LYP) =  -3016.19533107     A.U. after   12 cycles
 SCF Done:  E(RB3LYP) =  -3016.15330671     A.U. after   31 cycles
 SCF Done:  E(RB3LYP) =  -3016.19539609     A.U. after   19 cycles
 SCF Done:  E(RB3LYP) =  -3016.13185088     A.U. after   18 cycles
 SCF Done:  E(RB3LYP) =  -3016.19635298     A.U. after   17 cycles
 SCF Done:  E(RB3LYP) =  -3016.19762194     A.U. after   14 cycles
 SCF Done:  E(RB3LYP) =  -3016.19781734     A.U. after   14 cycles
 SCF Done:  E(RB3LYP) =  -3016.19798812     A.U. after   14 cycles
 SCF Done:  E(RB3LYP) =  -3016.19801847     A.U. after   12 cycles
 SCF Done:  E(RB3LYP) =  -3016.19802509     A.U. after   12 cycles
 SCF Done:  E(RB3LYP) =  -3016.19802789     A.U. after   11 cycles
 SCF Done:  E(RB3LYP) =  -3016.19802820     A.U. after   11 cycles
 SCF Done:  E(RB3LYP) =  -3016.19802824     A.U. after   10 cycles
 Optimization completed.
    -- Stationary point found.

 1\1\GINC-N017\FOpt\RB3LYP\6-31++G(d,p)\C21H10N4S5\SHUO\29-Dec-2013\0\\
 #B3LYP/6-31++G(d,p) opt scf=direct freq test\\Geom opt of No.35 candid
 ate from the CEPDB database with SMILE code of C1ccc2csc(c12)-c1cnc(-c
 2cnc(s2)-c2scc3ccsc23)c2nsnc12, HPC, 20131227, Shuo Dai, Gaussian09\\0
 ,1\C,-1.5112843079,0.9962715755,0.796959489\C,-2.3777543273,-0.2345145
 291,0.9984676057\C,-1.7997772843,-1.3473530097,0.4966572459\C,-0.50124
 19901,-0.9926330692,-0.0752356161\C,0.5527030357,-1.6270345261,-0.6786
 448924\S,1.8121262094,-0.4914284718,-1.0575148875\C,0.9049742126,0.870

 Normal termination of Gaussian 09 at Sun Dec 29 08:34:27 2013.

 ----------------------------------------------------------------------
 #N Geom=AllCheck Guess=TCheck SCRF=Check Test GenChk RB3LYP/6-31++G(d,
 p) Freq
 ----------------------------------------------------------------------

 Geom opt of No.35 candidate from the CEPDB database with SMILE code of
  C1ccc2csc(c12)-c1cnc(-c2cnc(s2)-c2scc3ccsc23)c2nsnc12, HPC, 20131227,
  Shuo Dai, Gaussian09
 ----------------------------------------------------------------------
 Charge =  0 Multiplicity = 1

                         Standard orientation:
 ---------------------------------------------------------------------
 Center     Atomic      Atomic             Coordinates (Angstroms)
 Number     Number       Type             X           Y           Z
 ---------------------------------------------------------------------
      1          6           0        6.107183   -0.606252    1.262902
      2          6           0        7.572762   -0.278465    1.488388
      3          6           0        7.938396    0.860452    0.861122
      4          6           0        6.776274    1.416628    0.168862
      5          6           0        6.472182    2.519799   -0.584736
      6         16           0        4.794176    2.506563   -1.035745
      7          6           0        4.489159    0.984733   -0.182946
      8          6           0        5.657185    0.542923    0.390919
      9          6           0        3.133529    0.437832   -0.157936
     10          6           0        2.009092    1.250819   -0.077719
     11          7           0        0.716136    0.840955   -0.064906
     12          6           0        0.401274   -0.447153   -0.123127
     13          6           0       -1.000981   -0.801936   -0.096692
     14          6           0       -1.629446   -2.035884   -0.140500
     15          7           0       -2.986076   -2.028503   -0.095456
     16          6           0       -3.456122   -0.793869   -0.016128
     17         16           0       -2.218636    0.455377    0.008008
     18          6           0       -4.861373   -0.497722    0.045521
     19         16           0       -6.023618   -1.815861    0.015232
     20          6           0       -7.368812   -0.740311    0.115561
     21          6           0       -6.970106    0.579933    0.171061
     22          6           0       -7.630488    1.861279    0.259122
     23          6           0       -6.746139    2.889077    0.283179
     24         16           0       -5.050918    2.391993    0.201593
     25          6           0       -5.539022    0.708486    0.130677
     26          6           0        1.466288   -1.419660   -0.214135
     27          7           0        1.336534   -2.745984   -0.311514
     28         16           0        2.855069   -3.358846   -0.429443
     29          7           0        3.724550   -1.967275   -0.359926
     30          6           0        2.843821   -0.965453   -0.235551
     31          1           0        5.550132   -0.658078    2.209016
     32          1           0        5.968158   -1.574671    0.769123
     33          1           0        8.227374   -0.906459    2.083002
     34          1           0        8.928427    1.301634    0.867227
     35          1           0        7.110490    3.330868   -0.907964
     36          1           0        2.139871    2.327180   -0.005348
     37          1           0       -1.101317   -2.977338   -0.207984
     38          1           0       -8.374960   -1.137347    0.127901
     39          1           0       -8.705009    1.993725    0.301217
     40          1           0       -6.966289    3.946968    0.345054
 ---------------------------------------------------------------------

 SCF Done:  E(RB3LYP) =  -3016.19802824     A.U. after    2 cycles

 The electronic state is 1-A.
 Alpha  occ. eigenvalues --  -88.99797 -88.93429 -88.92871 -88.92681 -88.91797
 Alpha  occ. eigenvalues --  -14.39742 -14.39224 -14.35605 -14.34836 -10.27683
 Alpha  occ. eigenvalues --  -10.27031 -10.26844 -10.26737 -10.24900 -10.24504
 Alpha  occ. eigenvalues --  -10.24317 -10.23958 -10.23923 -10.23923 -10.23625
 Alpha  occ. eigenvalues --  -10.23546 -10.23518 -10.22415 -10.22261 -10.21770
 Alpha  occ. eigenvalues --  -10.20613 -10.20410 -10.20399 -10.20315 -10.20218
 Alpha  occ. eigenvalues --   -8.05092  -7.99227  -7.98726  -7.98559  -7.97667
 Alpha  occ. eigenvalues --   -6.01651  -6.01067  -6.00849  -5.95667  -5.95269
 Alpha  occ. eigenvalues --   -5.95145  -5.95029  -5.94947  -5.94791  -5.94654
 Alpha  occ. eigenvalues --   -5.94432  -5.94179  -5.94115  -5.93722  -5.93363
 Alpha  occ. eigenvalues --   -1.04326  -0.98019  -0.96422  -0.92117  -0.91735
 Alpha  occ. eigenvalues --   -0.90060  -0.85871  -0.84229  -0.82518  -0.81810
 Alpha  occ. eigenvalues --   -0.80103  -0.78513  -0.75673  -0.74463  -0.73633
 Alpha  occ. eigenvalues --   -0.71520  -0.71049  -0.69447  -0.67613  -0.65029
 Alpha  occ. eigenvalues --   -0.64069  -0.61974  -0.60391  -0.59466  -0.58181
 Alpha  occ. eigenvalues --   -0.56274  -0.55369  -0.54935  -0.53391  -0.52960
 Alpha  occ. eigenvalues --   -0.52311  -0.51173  -0.50301  -0.48272  -0.47745
 Alpha  occ. eigenvalues --   -0.45940  -0.45130  -0.44836  -0.44168  -0.44130
 Alpha  occ. eigenvalues --   -0.43474  -0.42696  -0.42173  -0.41915  -0.41017
 Alpha  occ. eigenvalues --   -0.40740  -0.40264  -0.39966  -0.39529  -0.38642
 Alpha  occ. eigenvalues --   -0.37992  -0.37741  -0.37264  -0.36248  -0.35718
 Alpha  occ. eigenvalues --   -0.35352  -0.35013  -0.34827  -0.33127  -0.32446
 Alpha  occ. eigenvalues --   -0.31454  -0.30733  -0.29922  -0.29566  -0.29536
 Alpha  occ. eigenvalues --   -0.27754  -0.27509  -0.26031  -0.25484  -0.23728
 Alpha  occ. eigenvalues --   -0.22181  -0.20429
 Alpha virt. eigenvalues --   -0.11918  -0.07813  -0.04772  -0.03635  -0.02553
 Alpha virt. eigenvalues --   -0.02000  -0.01829  -0.01573  -0.00869  -0.00640
 Alpha virt. eigenvalues --   -0.00420  -0.00073   0.00159   0.00587   0.01255

 Mulliken atomic charges:
              1
     1  C   -1.010790
     2  C    0.173171
     3  C   -0.301541
     4  C   -0.028983
     5  C    0.117730
     6  S    0.090181
     7  C   -0.260097
     8  C    0.447099
     9  C   -0.613958
    10  C   -0.110499
    11  N   -0.152344
    12  C    0.159462
    13  C   -0.623918
    14  C    0.033853
    15  N   -0.070245
    16  C   -0.023662
    17  S    0.288745
    18  C   -0.149844
    19  S    0.253781
    20  C   -0.265420
    21  C   -0.037221
    22  C    0.035027
    23  C   -0.056940
    24  S   -0.176885
    25  C   -0.288267
    26  C    0.807584
    27  N   -0.505645
    28  S    0.969745
    29  N   -0.373101
    30  C    0.010291
    31  H    0.167106
    32  H    0.181236
    33  H    0.133867
    34  H    0.105700
    35  H    0.169520
    36  H    0.164697
    37  H    0.241107
    38  H    0.171043
    39  H    0.121570
    40  H    0.206847
 Sum of Mulliken atomic charges =  -0.00000

 Dipole moment (field-independent basis, Debye):
    X=             -0.4929    Y=              0.4284    Z=              0.8732  Tot=              1.0904
 Quadrupole moment (field-independent basis, Debye-Ang):
   XX=           -158.9075   YY=           -196.9958   ZZ=           -211.1126
   XY=            -11.4908   XZ=              3.3016   YZ=             -1.7713

  Exact polarizability: 843.789   3.178 405.362   3.542 -14.021 201.423
 Approx polarizability:1193.896  40.683 811.159   0.201 -36.477 346.136

                     1                      2                      3
                     A                      A                      A
 Frequencies --    15.8536                17.2907                32.0681
 Red. masses --     9.3029                 8.5527                 8.8203
 Frc consts  --     0.0014                 0.0015                 0.0053
 IR Inten    --     0.3054                 0.3109                 0.5615

                     4                      5                      6
                     A                      A                      A
 Frequencies --    36.7739                50.1732                67.4752
 Red. masses --     8.9945                 6.8724                 8.3913
 Frc consts  --     0.0072                 0.0102                 0.0225
 IR Inten    --     0.4291                 0.2804                 0.0145

                     7                      8                      9
                     A                      A                      A
 Frequencies --    72.0547                90.9461               109.2456
 Red. masses --     8.2515                 7.3060                10.2399
 Frc consts  --     0.0252                 0.0356                 0.0720
 IR Inten    --     0.0205                 0.6322                 0.2301

                    10                     11                     12
                     A                      A                      A
 Frequencies --   136.2050               142.4774               173.8661
 Red. masses --     9.2937                 9.9465                 5.3057
 Frc consts  --     0.1016                 0.1190                 0.0945
 IR Inten    --     0.4204                 0.3228                 0.6018

                    13                     14                     15
                     A                      A                      A
 Frequencies --   191.6112               202.3368               205.6450
 Red. masses --     7.8259                 6.6360                 7.5753
 Frc consts  --     0.1693                 0.1601                 0.1888
 IR Inten    --     0.8179                 3.6106                 1.4306

                    16                     17                     18
                     A                      A                      A
 Frequencies --   214.5467               226.4818               249.0075
 Red. masses --     8.1130                 9.3906                 7.6946
 Frc consts  --     0.2200                 0.2838                 0.2811
 IR Inten    --     1.9810                 0.1461                 0.5315

                    19                     20                     21
                     A                      A                      A
 Frequencies --   276.1146               289.4692               316.8007
 Red. masses --     6.6528                 5.2940                11.9442
 Frc consts  --     0.2988                 0.2614                 0.7063
 IR Inten    --     0.3825                 1.3497                 6.7304

                    22                     23                     24
                     A                      A                      A
 Frequencies --   319.8821               387.3961               397.5915
 Red. masses --     6.9311                 7.1885                 7.6893
 Frc consts  --     0.4179                 0.6356                 0.7162
 IR Inten    --     3.1408                 1.8661                 5.1427

                    25                     26                     27
                     A                      A                      A
 Frequencies --   416.7301               426.6486               441.4375
 Red. masses --     2.5594                 9.2498                 6.6953
 Frc consts  --     0.2619                 0.9920                 0.7687
 IR Inten    --     5.8185                 3.8571                 0.9425

                    28                     29                     30
                     A                      A                      A
 Frequencies --   451.3204               480.2362               496.5239
 Red. masses --     5.4495                 5.3451                 8.0708
 Frc consts  --     0.6540                 0.7263                 1.1723
 IR Inten    --     0.6710                12.6314                 5.4181

                    31                     32                     33
                     A                      A                      A
 Frequencies --   504.0261               514.8555               518.9740
 Red. masses --    10.1555                 6.4687                 8.9521
 Frc consts  --     1.5200                 1.0103                 1.4206
 IR Inten    --    22.5015                 0.0847                 3.9489

                    34                     35                     36
                     A                      A                      A
 Frequencies --   540.2488               548.2667               559.5634
 Red. masses --    11.6158                 7.9125                 4.6104
 Frc consts  --     1.9975                 1.4014                 0.8505
 IR Inten    --    11.3826                 7.1937                 5.9480

                    37                     38                     39
                     A                      A                      A
 Frequencies --   576.2318               604.3851               637.4927
 Red. masses --     9.1486                 5.7275                 8.1259
 Frc consts  --     1.7898                 1.2326                 1.9457
 IR Inten    --    29.4142                14.6304                16.2660

                    40                     41                     42
                     A                      A                      A
 Frequencies --   641.1084               657.6167               667.3487
 Red. masses --     6.1401                12.4831                 2.4374
 Frc consts  --     1.4869                 3.1807                 0.6396
 IR Inten    --     0.0019                 0.0304                27.8314

                    43                     44                     45
                     A                      A                      A
 Frequencies --   677.0066               682.5210               690.1237
 Red. masses --     2.6582                 8.6358                 3.9784
 Frc consts  --     0.7178                 2.3702                 1.1164
 IR Inten    --    16.5624                25.9184                 2.8819

                    46                     47                     48
                     A                      A                      A
 Frequencies --   703.6364               711.7491               719.8230
 Red. masses --     6.5206                 1.3865                 1.3372
 Frc consts  --     1.9021                 0.4138                 0.4082
 IR Inten    --    15.2421                11.6646                 1.5819

                    49                     50                     51
                     A                      A                      A
 Frequencies --   741.1747               752.3274               767.3816
 Red. masses --     9.2369                 9.4902                 1.8394
 Frc consts  --     2.9896                 3.1647                 0.6382
 IR Inten    --     4.4128                 1.1252                56.6524

                    52                     53                     54
                     A                      A                      A
 Frequencies --   767.8358               797.4583               805.6920
 Red. masses --     1.8298                 8.4496                 7.4212
 Frc consts  --     0.6356                 3.1659                 2.8383
 IR Inten    --    47.1384                 3.0751                 7.4233

                    55                     56                     57
                     A                      A                      A
 Frequencies --   808.0626               833.2020               842.0263
 Red. masses --     4.9948                12.2090                 6.8709
 Frc consts  --     1.9216                 4.9938                 2.8702
 IR Inten    --     8.8786                48.1612                61.9651

                    58                     59                     60
                     A                      A                      A
 Frequencies --   843.6509               860.7052               868.0807
 Red. masses --     7.6934                 4.7979                11.5292
 Frc consts  --     3.2262                 2.0942                 5.1188
 IR Inten    --     9.8120                70.3421                21.3784

                    61                     62                     63
                     A                      A                      A
 Frequencies --   870.2189               886.7435               902.2480
 Red. masses --     8.4332                 8.0339                 4.2944
 Frc consts  --     3.7627                 3.7219                 2.0597
 IR Inten    --     8.8465                 8.0503                 2.7734

                    64                     65                     66
                     A                      A                      A
 Frequencies --   904.1832               911.2534               923.9812
 Red. masses --     1.2983                 1.3913                 8.8602
 Frc consts  --     0.6254                 0.6807                 4.4568
 IR Inten    --     0.9802                 9.2908                 1.6858

                    67                     68                     69
                     A                      A                      A
 Frequencies --   945.9598               946.8207               952.1614
 Red. masses --     1.7840                 1.8476                 1.5140
 Frc consts  --     0.9405                 0.9759                 0.8087
 IR Inten    --     8.5239                11.1034                 5.4689

                    70                     71                     72
                     A                      A                      A
 Frequencies --   962.8138              1044.4603              1059.8697
 Red. masses --     1.5821                 3.6987                 3.7386
 Frc consts  --     0.8641                 2.3773                 2.4743
 IR Inten    --     0.1127                 5.9855                 0.3231

                    73                     74                     75
                     A                      A                      A
 Frequencies --  1116.3940              1117.0316              1143.3907
 Red. masses --     1.3673                 1.4317                 2.0788
 Frc consts  --     1.0040                 1.0526                 1.6012
 IR Inten    --     9.0611                 4.2411                 1.4942

                    76                     77                     78
                     A                      A                      A
 Frequencies --  1149.2922              1182.7576              1185.0827
 Red. masses --     1.1358                 1.4222                 1.7513
 Frc consts  --     0.8840                 1.1722                 1.4491
 IR Inten    --     4.5298                 6.2214                 3.7709

                    79                     80                     81
                     A                      A                      A
 Frequencies --  1199.1707              1206.2071              1244.0873
 Red. masses --     2.1029                 4.9620                 3.8264
 Frc consts  --     1.7817                 4.2536                 3.4893
 IR Inten    --   112.8704                 4.1017                16.2572

                    82                     83                     84
                     A                      A                      A
 Frequencies --  1274.5501              1281.4276              1321.0817
 Red. masses --     2.0199                 5.9410                 2.4064
 Frc consts  --     1.9333                 5.7478                 2.4744
 IR Inten    --    15.2779               188.7183                10.5627

                    85                     86                     87
                     A                      A                      A
 Frequencies --  1325.5423              1342.4703              1353.4567
 Red. masses --     2.3121                 2.5013                 2.6514
 Frc consts  --     2.3936                 2.6560                 2.8617
 IR Inten    --     4.9617                37.4805                11.9806

                    88                     89                     90
                     A                      A                      A
 Frequencies --  1355.2754              1358.0508              1364.2435
 Red. masses --     5.1935                 3.0569                 5.1930
 Frc consts  --     5.6203                 3.3217                 5.6944
 IR Inten    --     8.0465                96.6114                12.1540

                    91                     92                     93
                     A                      A                      A
 Frequencies --  1383.7505              1405.4828              1435.1792
 Red. masses --     4.4797                 6.5906                11.1928
 Frc consts  --     5.0538                 7.6706                13.5832
 IR Inten    --     2.4963                16.0674               540.9509

                    94                     95                     96
                     A                      A                      A
 Frequencies --  1454.7545              1498.2359              1506.8431
 Red. masses --     1.1047                 6.4582                 7.3632
 Frc consts  --     1.3775                 8.5413                 9.8504
 IR Inten    --    14.5088               349.1058               467.2318

                    97                     98                     99
                     A                      A                      A
 Frequencies --  1542.8499              1544.2312              1550.6813
 Red. masses --     6.5243                 7.4681                 6.8148
 Frc consts  --     9.1502                10.4926                 9.6549
 IR Inten    --     9.5788                17.2980                11.4631

                   100                    101                    102
                     A                      A                      A
 Frequencies --  1556.6152              1577.6565              1602.9199
 Red. masses --     6.9583                 6.9392                 8.6775
 Frc consts  --     9.9338                10.1761                13.1362
 IR Inten    --     9.0823                78.8519                54.7664

                   103                    104                    105
                     A                      A                      A
 Frequencies --  1606.7760              1638.8151              3033.3239
 Red. masses --     6.7005                 8.2609                 1.0688
 Frc consts  --    10.1922                13.0719                 5.7941
 IR Inten    --    15.6156                34.7584                11.9189

                   106                    107                    108
                     A                      A                      A
 Frequencies --  3083.2603              3188.0439              3210.9984
 Red. masses --     1.0919                 1.0905                 1.0872
 Frc consts  --     6.1156                 6.5303                 6.6048
 IR Inten    --     4.4563                33.5326                 1.9119

                   109                    110                    111
                     A                      A                      A
 Frequencies --  3227.3788              3233.6899              3256.6038
 Red. masses --     1.0895                 1.1026                 1.0993
 Frc consts  --     6.6864                 6.7932                 6.8692
 IR Inten    --     4.0733                32.6256                 2.8175

                   112                    113                    114
                     A                      A                      A
 Frequencies --  3257.9521              3258.4179              3261.7028
 Red. masses --     1.0941                 1.0935                 1.0938
 Frc consts  --     6.8420                 6.8406                 6.8559
 IR Inten    --     0.7279                 6.0595                 2.6950

 - Thermochemistry -
 -------------------
 Temperature   298.150 Kelvin.  Pressure   1.00000 Atm.
 Atom     1 has atomic number  6 and mass  12.00000

 Molecular mass:   477.95091 amu.
 Principal axes and moments of inertia in atomic units:
                           1         2         3
     Eigenvalues --  5974.84591********************
           X            1.00000  -0.00124   0.00265
           Y            0.00125   1.00000  -0.00279
           Z           -0.00264   0.00279   0.99999
 This molecule is an asymmetric top.
 Rotational symmetry number  1.
 Warning -- assumption of classical behavior for rotation
           may cause significant error
 Rotational temperatures (Kelvin)      0.01450     0.00216     0.00191
 Rotational constants (GHZ):           0.30206     0.04492     0.03986
 Zero-point vibrational energy     687393.2 (Joules/Mol)
                                  164.29092 (Kcal/Mol)
 Warning -- explicit consideration of  38 degrees of freedom as
           vibrations may cause significant error
 Vibrational temperatures:     22.81    24.88    46.14    52.91    72.19
          (Kelvin)             97.08   103.67   130.85   157.18   195.97
                              204.99   250.15   275.69   291.12   295.88
                              308.68   325.86   358.27   397.27   416.48
                              455.81   460.24   557.38   572.04   599.58
                              613.85   635.13   649.35   690.95   714.39
                              725.18   740.76   746.69   777.30   788.83
                              805.09   829.07   869.57   917.21   922.41
                              946.16   960.16   974.06   981.99   992.93
                             1012.37  1024.05  1035.66  1066.38  1082.43
                             1104.09  1104.74  1147.36  1159.21  1162.62
                             1198.79  1211.49  1213.82  1238.36  1248.97
                             1252.05  1275.82  1298.13  1300.92  1311.09
                             1329.40  1361.02  1362.26  1369.95  1385.27
                             1502.74  1524.91  1606.24  1607.16  1645.08
                             1653.57  1701.72  1705.07  1725.34  1735.46
                             1789.96  1833.79  1843.69  1900.74  1907.16
                             1931.51  1947.32  1949.94  1953.93  1962.84
                             1990.91  2022.17  2064.90  2093.06  2155.62
                             2168.01  2219.81  2221.80  2231.08  2239.62
                             2269.89  2306.24  2311.79  2357.89  4364.27
                             4436.12  4586.88  4619.90  4643.47  4652.55
                             4685.52  4687.46  4688.13  4692.86

 Zero-point correction=                           0.261814 (Hartree/Particle)
 Thermal correction to Energy=                    0.285717
 Thermal correction to Enthalpy=                  0.286661
 Thermal correction to Gibbs Free Energy=         0.204850
 Sum of electronic and zero-point Energies=          -3015.936214
 Sum of electronic and thermal Energies=             -3015.912311
 Sum of electronic and thermal Enthalpies=           -3015.911367
 Sum of electronic and thermal Free Energies=        -3015.993178

                     E (Thermal)             CV                S
                      KCal/Mol        Cal/Mol-Kelvin    Cal/Mol-Kelvin
 Total                  179.290             93.344            172.185
 Electronic               0.000              0.000              0.000
 Translational            0.889              2.981             44.381
 Rotational               0.889              2.981             37.628
 Vibrational            177.513             87.382             90.176
 Vibration     1          0.593              1.986              7.096
 Vibration     2          0.593              1.986              6.923
 Vibration     3          0.594              1.983              5.697
 Vibration     4          0.594              1.982              5.426
 Vibration     5          0.595              1.978              4.811
 Vibration     6          0.598              1.970              4.226
 Vibration     7          0.598              1.967              4.096
 Vibration     8          0.602              1.956              3.640
 Vibration     9          0.606              1.942              3.282
 Vibration    10          0.614              1.917              2.857
 Vibration    11          0.616              1.911              2.770
 Vibration    12          0.627              1.875              2.393
 Vibration    13          0.634              1.851              2.212
 Vibration    14          0.639              1.837              2.112
 Vibration    15          0.640              1.832              2.082
 Vibration    16          0.644              1.819              2.005
 Vibration    17          0.650              1.801              1.907
 Vibration    18          0.662              1.764              1.738
 Vibration    19          0.678              1.718              1.558
 Vibration    20          0.686              1.693              1.477
 Vibration    21          0.704              1.642              1.327
 Vibration    22          0.706              1.636              1.311
 Vibration    23          0.756              1.497              1.010
 Vibration    24          0.764              1.475              0.972
 Vibration    25          0.780              1.434              0.903
 Vibration    26          0.788              1.412              0.870
 Vibration    27          0.801              1.380              0.822
 Vibration    28          0.810              1.358              0.792
 Vibration    29          0.837              1.294              0.709
 Vibration    30          0.852              1.258              0.667
 Vibration    31          0.859              1.241              0.648
 Vibration    32          0.870              1.217              0.622
 Vibration    33          0.874              1.208              0.612
 Vibration    34          0.895              1.161              0.565
 Vibration    35          0.904              1.143              0.548
 Vibration    36          0.915              1.119              0.525
 Vibration    37          0.933              1.083              0.492
 Vibration    38          0.963              1.023              0.442

 Optimization completed.
    -- Stationary point found.

 1\1\GINC-N017\Freq\RB3LYP\6-31++G(d,p)\C21H10N4S5\SHUO\29-Dec-2013\0\\
 #N Geom=AllCheck Guess=TCheck SCRF=Check Test GenChk RB3LYP/6-31++G(d,
 p) Freq\\Geom opt of No.35 candidate from the CEPDB database with SMIL
 E code of C1ccc2csc(c12)-c1cnc(-c2cnc(s2)-c2scc3ccsc23)c2nsnc12, HPC,
 20131227, Shuo Dai, Gaussian09\\0,1\C,-1.5112843079,0.9962715755,0.796
 959489\C,-2.3777543273,-0.2345145291,0.9984676057\C,-1.7997772843,-1.3
 473530097,0.4966572459\C,-0.5012419901,-0.9926330692,-0.0752356161\C,0
 .5527030357,-1.6270345261,-0.6786448924\S,1.8121262094,-0.4914284718,-

 Normal termination of Gaussian 09 at Sun Dec 29 10:11:03 2013.
