 Gaussian 09, Revision C.01,
 Gaussian 09:  EM64L-G09RevC.01 23-Sep-2011

 --------------------------------------------
 #B3LYP/6-31++G(d,p) opt scf=direct freq test
 --------------------------------------------

 Geom opt of No.15 candidate from the CEPDB database with SMILE code of
  C1C=Cc2sc3c(cnc4cc([nH]c34)-c3cncc4nsnc34)c12, HPC, 20131227, Shuo Da
 i, Gaussian09
 ----------------------------------------------------------------------
 Charge =  0 Multiplicity = 1

 SCF Done:  E(RB3LYP) =  -1722.98789633     A.U. after   23 cycles
 SCF Done:  E(RB3LYP) =  -1723.05796324     A.U. after   18 cycles
 SCF Done:  E(RB3LYP) =  -1723.12842048     A.U. after   19 cycles
 SCF Done:  E(RB3LYP) =  -1723.17943093     A.U. after   17 cycles
 SCF Done:  E(RB3LYP) =  -1723.21891840     A.U. after   18 cycles
 SCF Done:  E(RB3LYP) =  -1723.23204229     A.U. after   16 cycles
 SCF Done:  E(RB3LYP) =  -1723.23833706     A.U. after   17 cycles
 SCF Done:  E(RB3LYP) =  -1723.23937967     A.U. after   15 cycles
 SCF Done:  E(RB3LYP) =  -1723.23986599     A.U. after   15 cycles
 SCF Done:  E(RB3LYP) =  -1723.24068293     A.U. after   15 cycles
 SCF Done:  E(RB3LYP) =  -1723.27375912     A.U. after   12 cycles
 SCF Done:  E(RB3LYP) =  -1723.27382553     A.U. after   12 cycles
 SCF Done:  E(RB3LYP) =  -1723.27382761     A.U. after   12 cycles
 SCF Done:  E(RB3LYP) =  -1723.27383088     A.U. after   11 cycles
 SCF Done:  E(RB3LYP) =  -1723.27383138     A.U. after   10 cycles
 SCF Done:  E(RB3LYP) =  -1723.27383154     A.U. after   11 cycles
 SCF Done:  E(RB3LYP) =  -1723.27383165     A.U. after   10 cycles
 SCF Done:  E(RB3LYP) =  -1723.27383173     A.U. after   10 cycles
 SCF Done:  E(RB3LYP) =  -1723.27383178     A.U. after    9 cycles
 Optimization completed.
    -- Stationary point found.
 Normal termination of Gaussian 09 at Sun Dec 29 01:59:43 2013.

 ----------------------------------------------------------------------
 #N Geom=AllCheck Guess=TCheck SCRF=Check Test GenChk RB3LYP/6-31++G(d,
 p) Freq
 ----------------------------------------------------------------------

 Geom opt of No.15 candidate from the CEPDB database with SMILE code of
  C1C=Cc2sc3c(cnc4cc([nH]c34)-c3cncc4nsnc34)c12, HPC, 20131227, Shuo Da
 i, Gaussian09
 ----------------------------------------------------------------------
 Charge =  0 Multiplicity = 1

                         Standard orientation:
 ---------------------------------------------------------------------
 Center     Atomic      Atomic             Coordinates (Angstroms)
 Number     Number       Type             X           Y           Z
 ---------------------------------------------------------------------
      1          6           0       -5.781878    0.060161   -0.953699
      2          6           0       -5.872789   -0.393578    0.484304
      3          6           0       -5.363419   -1.846658    0.630276
      4          6           0       -4.161516   -1.493376    0.132929
      5         16           0       -2.443031   -1.836582   -0.070403
      6          6           0       -2.142636   -0.055478   -0.018418
      7          6           0       -3.288177    0.768362    0.000946
      8          6           0       -3.130912    2.170825    0.037506
      9          7           0       -1.956068    2.796985    0.063081
     10          6           0       -0.861036    2.010558    0.041948
     11          6           0        0.516161    2.376775    0.058097
     12          6           0        1.258047    1.204939    0.025397
     13          7           0        0.385376    0.121047   -0.010351
     14          1           0        0.699687   -0.841378   -0.030997
     15          6           0       -0.905749    0.580017   -0.001252
     16          6           0        2.701712    1.013524    0.026061
     17          6           0        3.590921    2.080744    0.061327
     18          7           0        4.953726    1.996704    0.065308
     19          6           0        5.537917    0.820582    0.034096
     20          6           0        4.762869   -0.375700   -0.003945
     21          7           0        5.225566   -1.633645   -0.037625
     22         16           0        3.913740   -2.611914   -0.071882
     23          7           0        2.717086   -1.480234   -0.045512
     24          6           0        3.321180   -0.282293   -0.008227
     25          6           0       -4.503878   -0.054424   -0.123072
     26          1           0       -6.104147    1.082349   -1.153873
     27          1           0       -5.955835   -0.648570   -1.762846
     28          1           0       -6.370894    0.177533    1.260878
     29          1           0       -5.851475   -2.771950    0.906650
     30          1           0       -4.015323    2.804875    0.049889
     31          1           0        0.897001    3.386561    0.090043
     32          1           0        3.205159    3.094753    0.089027
     33          1           0        6.623761    0.775892    0.037831
 ---------------------------------------------------------------------

 SCF Done:  E(RB3LYP) =  -1723.27383178     A.U. after    3 cycles

 The electronic state is 1-A.
 Alpha  occ. eigenvalues --  -89.01069 -88.92277 -14.40849 -14.40736 -14.39872
 Alpha  occ. eigenvalues --  -14.36791 -14.33795 -10.28035 -10.27291 -10.25959
 Alpha  occ. eigenvalues --  -10.25636 -10.25208 -10.25055 -10.24884 -10.24656
 Alpha  occ. eigenvalues --  -10.23928 -10.23019 -10.22971 -10.22778 -10.22440
 Alpha  occ. eigenvalues --  -10.22150 -10.21891 -10.20988 -10.19877  -8.06362
 Alpha  occ. eigenvalues --   -7.98088  -6.02917  -6.02335  -6.02124  -5.94573
 Alpha  occ. eigenvalues --   -5.94247  -5.93645  -1.05469  -1.00756  -0.97003
 Alpha  occ. eigenvalues --   -0.94701  -0.93503  -0.92566  -0.85651  -0.83841
 Alpha  occ. eigenvalues --   -0.80802  -0.79164  -0.77989  -0.75537  -0.72852
 Alpha  occ. eigenvalues --   -0.70061  -0.67144  -0.66454  -0.65186  -0.62213
 Alpha  occ. eigenvalues --   -0.60592  -0.60216  -0.59544  -0.55562  -0.54973
 Alpha  occ. eigenvalues --   -0.54084  -0.52208  -0.51230  -0.49601  -0.49368
 Alpha  occ. eigenvalues --   -0.48751  -0.48242  -0.47659  -0.45511  -0.45144
 Alpha  occ. eigenvalues --   -0.44400  -0.43773  -0.42942  -0.41291  -0.41201
 Alpha  occ. eigenvalues --   -0.40161  -0.39515  -0.39334  -0.37800  -0.36908
 Alpha  occ. eigenvalues --   -0.35999  -0.35980  -0.34674  -0.33902  -0.32940
 Alpha  occ. eigenvalues --   -0.31926  -0.30858  -0.29069  -0.28675  -0.28373
 Alpha  occ. eigenvalues --   -0.26482  -0.24583  -0.22760  -0.20359
 Alpha virt. eigenvalues --   -0.12614  -0.06257  -0.03471  -0.03229  -0.02980
 Alpha virt. eigenvalues --   -0.01765  -0.01172  -0.00908  -0.00406  -0.00248
 Alpha virt. eigenvalues --    0.00444   0.01028   0.01348   0.01522   0.01726

 Mulliken atomic charges:
              1
     1  C   -0.532347
     2  C   -0.155274
     3  C   -0.293143
     4  C   -0.391962
     5  S    0.247570
     6  C   -0.147448
     7  C    0.348618
     8  C    0.057758
     9  N   -0.218033
    10  C   -0.651764
    11  C   -0.099157
    12  C    0.798117
    13  N   -0.239987
    14  H    0.432515
    15  C    0.021529
    16  C   -0.995579
    17  C    0.150195
    18  N   -0.074349
    19  C   -0.420245
    20  C    0.226608
    21  N   -0.406704
    22  S    0.940242
    23  N   -0.508383
    24  C    0.208385
    25  C    0.316653
    26  H    0.153534
    27  H    0.187673
    28  H    0.198009
    29  H    0.127028
    30  H    0.159450
    31  H    0.150597
    32  H    0.225696
    33  H    0.184199
 Sum of Mulliken atomic charges =  -0.00000

 Dipole moment (field-independent basis, Debye):
    X=             -1.0139    Y=             -2.9042    Z=             -0.1719  Tot=              3.0809
 Quadrupole moment (field-independent basis, Debye-Ang):
   XX=           -139.6754   YY=           -155.3853   ZZ=           -153.4818
   XY=             -4.5709   XZ=             -0.1950   YZ=             -0.5693

  Exact polarizability: 519.632   1.305 291.120  -2.531  -1.129 140.422
 Approx polarizability: 798.813  -8.789 546.536 -11.626   1.038 234.037

                     1                      2                      3
                     A                      A                      A
 Frequencies --    22.6199                35.6557                58.7533
 Red. masses --     9.1180                 6.7817                10.6889
 Frc consts  --     0.0027                 0.0051                 0.0217
 IR Inten    --     0.0134                 0.2329                 0.1691

                     4                      5                      6
                     A                      A                      A
 Frequencies --    81.1966               118.4307               153.2376
 Red. masses --     6.5126                 4.3624                 6.8307
 Frc consts  --     0.0253                 0.0361                 0.0945
 IR Inten    --     0.5261                 1.2389                 0.3957

                     7                      8                      9
                     A                      A                      A
 Frequencies --   157.1876               184.5754               193.0364
 Red. masses --     8.5724                 5.4015                 6.8013
 Frc consts  --     0.1248                 0.1084                 0.1493
 IR Inten    --     0.7449                 0.2552                 0.1824

                    10                     11                     12
                     A                      A                      A
 Frequencies --   219.0884               236.2944               256.5719
 Red. masses --     6.6500                 5.8038                 5.1563
 Frc consts  --     0.1881                 0.1909                 0.2000
 IR Inten    --     0.0898                 0.1352                 0.1642

                    13                     14                     15
                     A                      A                      A
 Frequencies --   276.4652               322.3900               363.2105
 Red. masses --     7.2683                 6.4163                 7.1228
 Frc consts  --     0.3273                 0.3929                 0.5536
 IR Inten    --     2.4049                 0.1650                 2.8500

                    16                     17                     18
                     A                      A                      A
 Frequencies --   398.9228               429.4451               451.1445
 Red. masses --     5.8279                 9.8373                 2.9837
 Frc consts  --     0.5464                 1.0689                 0.3578
 IR Inten    --     5.8487                 4.5465                 1.0271

                    19                     20                     21
                     A                      A                      A
 Frequencies --   459.6659               486.5374               494.8093
 Red. masses --     4.9192                 6.4220                 9.0848
 Frc consts  --     0.6124                 0.8957                 1.3105
 IR Inten    --     0.9965                 2.8697                12.9124

                    22                     23                     24
                     A                      A                      A
 Frequencies --   498.3586               537.4352               539.6272
 Red. masses --     6.3269                 9.8022                 1.7754
 Frc consts  --     0.9258                 1.6681                 0.3046
 IR Inten    --     6.1396                 0.5917                21.7138

                    25                     26                     27
                     A                      A                      A
 Frequencies --   549.6013               571.7609               579.9156
 Red. masses --     7.7493                 3.8388                 4.7644
 Frc consts  --     1.3791                 0.7394                 0.9440
 IR Inten    --    21.0167                 7.4282                 5.7349

                    28                     29                     30
                     A                      A                      A
 Frequencies --   581.9154               603.2743               630.5492
 Red. masses --     5.5011                 2.4611                 6.3075
 Frc consts  --     1.0975                 0.5277                 1.4776
 IR Inten    --     5.8891                11.6185                16.4227

                    31                     32                     33
                     A                      A                      A
 Frequencies --   647.0052               654.2359               692.8588
 Red. masses --     4.9819                 6.5114                 6.0019
 Frc consts  --     1.2288                 1.6421                 1.6976
 IR Inten    --    10.1159                 9.8404                 8.2085

                    34                     35                     36
                     A                      A                      A
 Frequencies --   694.5382               731.5345               732.4109
 Red. masses --     3.1501                 1.6583                 7.6617
 Frc consts  --     0.8953                 0.5229                 2.4215
 IR Inten    --    13.9184                35.7986                13.5040

                    37                     38                     39
                     A                      A                      A
 Frequencies --   760.8006               776.5344               805.8618
 Red. masses --     3.6009                 5.7100                 2.7006
 Frc consts  --     1.2280                 2.0287                 1.0333
 IR Inten    --     0.5387                 3.8653                 1.3954

                    40                     41                     42
                     A                      A                      A
 Frequencies --   826.7194               830.6569               834.7210
 Red. masses --     3.3315                 2.4182                 3.9967
 Frc consts  --     1.3416                 0.9831                 1.6407
 IR Inten    --    25.5587                30.5304                27.8911

                    43                     44                     45
                     A                      A                      A
 Frequencies --   836.8550               843.9701               877.5404
 Red. masses --     7.3160                 8.7309                 8.0253
 Frc consts  --     3.0187                 3.6641                 3.6412
 IR Inten    --    33.5027                23.7230                10.6751

                    46                     47                     48
                     A                      A                      A
 Frequencies --   895.7811               907.3331               918.9642
 Red. masses --     1.4342                 6.4964                 4.3187
 Frc consts  --     0.6781                 3.1510                 2.1488
 IR Inten    --    18.6884                 4.2906                35.8987

                    49                     50                     51
                     A                      A                      A
 Frequencies --   922.0804               944.9528               950.6060
 Red. masses --     1.4672                 1.7365                 1.5067
 Frc consts  --     0.7350                 0.9136                 0.8022
 IR Inten    --     8.3056                 2.7298                 0.7455

                    52                     53                     54
                     A                      A                      A
 Frequencies --   954.2144               993.0140              1006.8495
 Red. masses --     4.2254                 1.6589                 1.8902
 Frc consts  --     2.2668                 0.9638                 1.1290
 IR Inten    --    13.8785                 3.7940                 4.0154

                    55                     56                     57
                     A                      A                      A
 Frequencies --  1033.5677              1068.3820              1086.1262
 Red. masses --     4.0518                 2.5129                 1.3088
 Frc consts  --     2.5502                 1.6900                 0.9096
 IR Inten    --     4.5508                 7.2171                 5.6384

                    58                     59                     60
                     A                      A                      A
 Frequencies --  1135.4170              1156.6838              1170.7637
 Red. masses --     3.4486                 2.1830                 1.5107
 Frc consts  --     2.6194                 1.7208                 1.2200
 IR Inten    --    12.7003                94.5992                 0.5805

                    61                     62                     63
                     A                      A                      A
 Frequencies --  1182.0254              1223.8791              1238.3162
 Red. masses --     2.9377                 2.8224                 1.9955
 Frc consts  --     2.4183                 2.4909                 1.8029
 IR Inten    --    10.8416                11.0469                39.4831

                    64                     65                     66
                     A                      A                      A
 Frequencies --  1247.8433              1265.8546              1303.0623
 Red. masses --     1.9916                 3.5676                 2.7003
 Frc consts  --     1.8271                 3.3681                 2.7014
 IR Inten    --     2.3854                 0.9353                63.0718

                    67                     68                     69
                     A                      A                      A
 Frequencies --  1319.3555              1345.2152              1348.7451
 Red. masses --     5.1369                 3.1143                 3.8385
 Frc consts  --     5.2683                 3.3204                 4.1141
 IR Inten    --   167.1479                42.0523                 3.4697

                    70                     71                     72
                     A                      A                      A
 Frequencies --  1371.6077              1380.0487              1390.2212
 Red. masses --     4.7417                 2.0446                 2.6934
 Frc consts  --     5.2559                 2.2943                 3.0671
 IR Inten    --    23.0271                17.5622                23.8970

                    73                     74                     75
                     A                      A                      A
 Frequencies --  1410.2840              1412.9861              1446.0088
 Red. masses --     4.5388                 4.1176                 4.0223
 Frc consts  --     5.3187                 4.8437                 4.9553
 IR Inten    --    44.9854                57.1241                 7.1842

                    76                     77                     78
                     A                      A                      A
 Frequencies --  1480.4822              1505.0839              1509.4167
 Red. masses --     1.3587                 5.3537                 5.1318
 Frc consts  --     1.7546                 7.1454                 6.8888
 IR Inten    --     6.2692                 4.4777                 9.9970

                    79                     80                     81
                     A                      A                      A
 Frequencies --  1538.8675              1566.5532              1589.4176
 Red. masses --     5.3851                 6.3677                 5.7571
 Frc consts  --     7.5135                 9.2072                 8.5689
 IR Inten    --    42.1722               132.6027                31.0372

                    82                     83                     84
                     A                      A                      A
 Frequencies --  1609.8498              1615.0900              1656.1338
 Red. masses --     5.6137                 7.7207                 8.5844
 Frc consts  --     8.5717                11.8658                13.8724
 IR Inten    --    19.4124                90.7672                16.7241

                    85                     86                     87
                     A                      A                      A
 Frequencies --  3095.5646              3164.7413              3187.7513
 Red. masses --     1.0533                 1.0898                 1.1160
 Frc consts  --     5.9466                 6.4311                 6.6819
 IR Inten    --    35.3314                26.2280                 8.9055

                    88                     89                     90
                     A                      A                      A
 Frequencies --  3193.3793              3204.4837              3205.4781
 Red. masses --     1.0913                 1.0928                 1.0910
 Frc consts  --     6.5567                 6.6116                 6.6046
 IR Inten    --     2.1919                10.1290                11.8758

                    91                     92                     93
                     A                      A                      A
 Frequencies --  3247.9916              3275.6561              3593.0157
 Red. masses --     1.0991                 1.0963                 1.0822
 Frc consts  --     6.8317                 6.9306                 8.2315
 IR Inten    --     5.8753                 0.6936               167.7637

 - Thermochemistry -
 -------------------
 Temperature   298.150 Kelvin.  Pressure   1.00000 Atm.
 Atom     1 has atomic number  6 and mass  12.00000

 Molecular mass:   347.02994 amu.
 Principal axes and moments of inertia in atomic units:
                           1         2         3
     Eigenvalues --  3470.11578********************
           X            0.99999   0.00472   0.00096
           Y           -0.00472   0.99999  -0.00173
           Z           -0.00097   0.00173   1.00000
 This molecule is an asymmetric top.
 Rotational symmetry number  1.
 Warning -- assumption of classical behavior for rotation
           may cause significant error
 Rotational temperatures (Kelvin)      0.02496     0.00507     0.00425
 Rotational constants (GHZ):           0.52008     0.10568     0.08865
 Zero-point vibrational energy     599969.5 (Joules/Mol)
                                  143.39615 (Kcal/Mol)
 Warning -- explicit consideration of  29 degrees of freedom as
           vibrations may cause significant error
 Vibrational temperatures:     32.54    51.30    84.53   116.82   170.40
          (Kelvin)            220.47   226.16   265.56   277.74   315.22
                              339.97   369.15   397.77   463.85   522.58
                              573.96   617.87   649.10   661.36   700.02
                              711.92   717.03   773.25   776.40   790.75
                              822.64   834.37   837.25   867.98   907.22
                              930.90   941.30   996.87   999.28  1052.51
                             1053.77  1094.62  1117.26  1159.45  1189.46
                             1195.13  1200.98  1204.05  1214.28  1262.58
                             1288.83  1305.45  1322.18  1326.67  1359.57
                             1367.71  1372.90  1428.72  1448.63  1487.07
                             1537.16  1562.69  1633.61  1664.21  1684.47
                             1700.67  1760.89  1781.66  1795.37  1821.28
                             1874.81  1898.26  1935.46  1940.54  1973.44
                             1985.58  2000.22  2029.08  2032.97  2080.48
                             2130.08  2165.48  2171.71  2214.08  2253.92
                             2286.81  2316.21  2323.75  2382.80  4453.82
                             4553.35  4586.46  4594.55  4610.53  4611.96
                             4673.13  4712.93  5169.54

 Zero-point correction=                           0.228516 (Hartree/Particle)
 Thermal correction to Energy=                    0.245841
 Thermal correction to Enthalpy=                  0.246785
 Thermal correction to Gibbs Free Energy=         0.182014
 Sum of electronic and zero-point Energies=          -1723.045315
 Sum of electronic and thermal Energies=             -1723.027991
 Sum of electronic and thermal Enthalpies=           -1723.027047
 Sum of electronic and thermal Free Energies=        -1723.091818

                     E (Thermal)             CV                S
                      KCal/Mol        Cal/Mol-Kelvin    Cal/Mol-Kelvin
 Total                  154.267             70.557            136.322
 Electronic               0.000              0.000              0.000
 Translational            0.889              2.981             43.427
 Rotational               0.889              2.981             35.444
 Vibrational            152.490             64.595             57.451
 Vibration     1          0.593              1.985              6.390
 Vibration     2          0.594              1.982              5.487
 Vibration     3          0.596              1.974              4.499
 Vibration     4          0.600              1.962              3.862
 Vibration     5          0.609              1.934              3.126
 Vibration     6          0.619              1.899              2.632
 Vibration     7          0.621              1.895              2.583
 Vibration     8          0.631              1.861              2.282
 Vibration     9          0.635              1.850              2.198
 Vibration    10          0.647              1.812              1.967
 Vibration    11          0.655              1.785              1.831
 Vibration    12          0.666              1.752              1.685
 Vibration    13          0.678              1.717              1.555
 Vibration    14          0.707              1.631              1.298
 Vibration    15          0.737              1.548              1.108
 Vibration    16          0.765              1.472              0.967
 Vibration    17          0.791              1.406              0.860
 Vibration    18          0.810              1.358              0.792
 Vibration    19          0.818              1.340              0.767
 Vibration    20          0.843              1.280              0.693
 Vibration    21          0.850              1.262              0.671
 Vibration    22          0.854              1.254              0.662
 Vibration    23          0.892              1.167              0.571
 Vibration    24          0.895              1.162              0.566
 Vibration    25          0.905              1.141              0.545
 Vibration    26          0.928              1.092              0.501
 Vibration    27          0.937              1.075              0.486
 Vibration    28          0.939              1.070              0.482
 Vibration    29          0.962              1.025              0.444

 Optimization completed.
    -- Stationary point found.
 Normal termination of Gaussian 09 at Sun Dec 29 02:48:51 2013.
