 Gaussian 09, Revision C.01,
 Gaussian 09:  EM64L-G09RevC.01 23-Sep-2011

 --------------------------------------------
 #B3LYP/6-31++G(d,p) opt scf=direct freq test
 --------------------------------------------

 Geom opt of No.94 candidate from the CEPDB database with SMILE code of
  [SiH2]1cccc1-c1sc(-c2ccc(cn2)-c2cncc3nsnc23)c2nccnc12, HPC, 20131227,
  Shuo Dai, Gaussian09
 ----------------------------------------------------------------------
 Charge =  0 Multiplicity = 1

 SCF Done:  E(RB3LYP) =  -2183.63345269     A.U. after   24 cycles
 SCF Done:  E(RB3LYP) =  -2183.67617153     A.U. after   18 cycles
 SCF Done:  E(RB3LYP) =  -2183.70576201     A.U. after   18 cycles
 SCF Done:  E(RB3LYP) =  -2183.71262010     A.U. after   18 cycles
 SCF Done:  E(RB3LYP) =  -2183.71614482     A.U. after   15 cycles
 SCF Done:  E(RB3LYP) =  -2183.71678370     A.U. after   14 cycles
 SCF Done:  E(RB3LYP) =  -2183.71691221     A.U. after   13 cycles
 SCF Done:  E(RB3LYP) =  -2183.71697022     A.U. after   13 cycles
 SCF Done:  E(RB3LYP) =  -2183.71698958     A.U. after   13 cycles
 SCF Done:  E(RB3LYP) =  -2183.71699512     A.U. after   12 cycles
 SCF Done:  E(RB3LYP) =  -2183.71833911     A.U. after   17 cycles
 SCF Done:  E(RB3LYP) =  -2183.71878397     A.U. after   17 cycles
 SCF Done:  E(RB3LYP) =  -2183.71926068     A.U. after   17 cycles
 SCF Done:  E(RB3LYP) =  -2183.71931238     A.U. after   14 cycles
 SCF Done:  E(RB3LYP) =  -2183.71932266     A.U. after   13 cycles
 SCF Done:  E(RB3LYP) =  -2183.71932500     A.U. after   13 cycles
 SCF Done:  E(RB3LYP) =  -2183.71932557     A.U. after   12 cycles
 SCF Done:  E(RB3LYP) =  -2183.71932568     A.U. after   11 cycles
 SCF Done:  E(RB3LYP) =  -2183.71932573     A.U. after   11 cycles
 Optimization completed.
    -- Stationary point found.
 Normal termination of Gaussian 09 at Mon Dec 30 06:10:00 2013.

 ----------------------------------------------------------------------
 #N Geom=AllCheck Guess=TCheck SCRF=Check Test GenChk RB3LYP/6-31++G(d,
 p) Freq
 ----------------------------------------------------------------------

 Geom opt of No.94 candidate from the CEPDB database with SMILE code of
  [SiH2]1cccc1-c1sc(-c2ccc(cn2)-c2cncc3nsnc23)c2nccnc12, HPC, 20131227,
  Shuo Dai, Gaussian09
 ----------------------------------------------------------------------
 Charge =  0 Multiplicity = 1

                         Standard orientation:
 ---------------------------------------------------------------------
 Center     Atomic      Atomic             Coordinates (Angstroms)
 Number     Number       Type             X           Y           Z
 ---------------------------------------------------------------------
      1         14           0       -6.788782   -0.364987    0.082232
      2          1           0       -7.150935    0.417018   -1.123696
      3          1           0       -7.078233    0.407131    1.313839
      4          6           0       -7.593742   -2.067039    0.096364
      5          6           0       -6.602803   -2.991928    0.058950
      6          6           0       -5.221141   -2.492213    0.020380
      7          6           0       -5.047220   -1.135359    0.026302
      8          6           0       -3.801476   -0.427905   -0.003624
      9         16           0       -2.225547   -1.167573   -0.031351
     10          6           0       -1.352586    0.341355   -0.045231
     11          6           0        0.110104    0.357638   -0.062416
     12          6           0        0.851376   -0.664830   -0.688505
     13          6           0        2.237953   -0.606354   -0.683692
     14          6           0        2.883956    0.480703   -0.070379
     15          6           0        2.049874    1.436255    0.545368
     16          7           0        0.721273    1.387591    0.559383
     17          6           0        4.349567    0.643602   -0.061819
     18          6           0        4.945278    1.893716   -0.128713
     19          7           0        6.289836    2.157226   -0.095432
     20          6           0        7.141152    1.163781   -0.010743
     21          6           0        6.686896   -0.188162    0.044502
     22          7           0        7.451752   -1.284950    0.130782
     23         16           0        6.418301   -2.557271    0.174978
     24          7           0        4.979014   -1.767494    0.088064
     25          6           0        5.266856   -0.459134    0.018127
     26          6           0       -2.262313    1.406467   -0.030409
     27          7           0       -1.953501    2.737964   -0.096298
     28          6           0       -2.980012    3.554230   -0.081522
     29          6           0       -4.345869    3.113478   -0.010729
     30          7           0       -4.678752    1.843835    0.017151
     31          6           0       -3.636744    0.965863   -0.001178
     32          1           0       -8.641144   -2.349278    0.125926
     33          1           0       -6.777975   -4.066705    0.056108
     34          1           0       -4.394746   -3.201645   -0.010723
     35          1           0        0.345192   -1.479897   -1.195892
     36          1           0        2.816572   -1.386125   -1.164587
     37          1           0        2.491332    2.270890    1.086295
     38          1           0        4.321236    2.775784   -0.234890
     39          1           0        8.204625    1.388233    0.015694
     40          1           0       -2.769220    4.620990   -0.137042
     41          1           0       -5.149816    3.846754    0.007958
 ---------------------------------------------------------------------

 SCF Done:  E(RB3LYP) =  -2183.71932573     A.U. after    2 cycles

 The electronic state is 1-A.
 Alpha  occ. eigenvalues --  -89.00300 -88.94125 -66.13653 -14.40208 -14.39779
 Alpha  occ. eigenvalues --  -14.37029 -14.36490 -14.36254 -14.34594 -10.27295
 Alpha  occ. eigenvalues --  -10.26742 -10.25808 -10.25695 -10.25089 -10.24834
 Alpha  occ. eigenvalues --  -10.24832 -10.24802 -10.24781 -10.24540 -10.24459
 Alpha  occ. eigenvalues --  -10.24168 -10.24007 -10.22885 -10.22335 -10.21693
 Alpha  occ. eigenvalues --  -10.21460 -10.21080 -10.20538 -10.18448  -8.05610
 Alpha  occ. eigenvalues --   -7.99984  -6.02160  -6.01576  -6.01381  -5.96387
 Alpha  occ. eigenvalues --   -5.96015  -5.95752  -5.28317  -3.64219  -3.64169
 Alpha  occ. eigenvalues --   -3.64131  -1.04742  -0.99729  -0.96717  -0.96140
 Alpha  occ. eigenvalues --   -0.92792  -0.91977  -0.89823  -0.84903  -0.83629
 Alpha  occ. eigenvalues --   -0.81288  -0.80552  -0.78438  -0.77200  -0.75406
 Alpha  occ. eigenvalues --   -0.71485  -0.69208  -0.67962  -0.66681  -0.66144
 Alpha  occ. eigenvalues --   -0.64683  -0.63798  -0.62168  -0.60644  -0.58470
 Alpha  occ. eigenvalues --   -0.55138  -0.54353  -0.54059  -0.53331  -0.52578
 Alpha  occ. eigenvalues --   -0.51767  -0.50727  -0.50026  -0.49029  -0.48317
 Alpha  occ. eigenvalues --   -0.48049  -0.47424  -0.46660  -0.45328  -0.44894
 Alpha  occ. eigenvalues --   -0.42819  -0.42480  -0.42189  -0.41872  -0.41313
 Alpha  occ. eigenvalues --   -0.40833  -0.40340  -0.39672  -0.39258  -0.38808
 Alpha  occ. eigenvalues --   -0.37328  -0.36975  -0.36052  -0.35532  -0.35258
 Alpha  occ. eigenvalues --   -0.33603  -0.32927  -0.32516  -0.32424  -0.31344
 Alpha  occ. eigenvalues --   -0.30956  -0.30124  -0.29541  -0.28372  -0.27680
 Alpha  occ. eigenvalues --   -0.27469  -0.27268  -0.25456  -0.25074  -0.20323
 Alpha virt. eigenvalues --   -0.12056  -0.10934  -0.06480  -0.05590  -0.04235
 Alpha virt. eigenvalues --   -0.02920  -0.02220  -0.01670  -0.01032  -0.00580
 Alpha virt. eigenvalues --   -0.00166  -0.00133   0.00267   0.00770   0.01167

 Mulliken atomic charges:
              1
     1  Si   0.841406
     2  H   -0.079701
     3  H   -0.078747
     4  C   -0.436238
     5  C   -0.036681
     6  C   -0.016726
     7  C   -0.548643
     8  C   -0.664752
     9  S   -0.072226
    10  C   -0.923748
    11  C   -0.304656
    12  C   -0.006026
    13  C    0.027902
    14  C    0.231015
    15  C   -0.224987
    16  N   -0.038325
    17  C   -0.568859
    18  C   -0.470437
    19  N   -0.107286
    20  C   -0.142740
    21  C    0.192408
    22  N   -0.415537
    23  S    0.893474
    24  N   -0.444056
    25  C    0.454753
    26  C    0.584914
    27  N   -0.118810
    28  C    0.209926
    29  C    0.093525
    30  N   -0.126608
    31  C    0.791155
    32  H    0.152541
    33  H    0.125504
    34  H    0.107999
    35  H    0.137683
    36  H    0.150743
    37  H    0.161798
    38  H    0.182183
    39  H    0.180947
    40  H    0.158996
    41  H    0.146916
 Sum of Mulliken atomic charges =  -0.00000

 Dipole moment (field-independent basis, Debye):
    X=             -0.6143    Y=             -2.0859    Z=             -0.8642  Tot=              2.3400
 Quadrupole moment (field-independent basis, Debye-Ang):
   XX=           -185.5980   YY=           -175.5790   ZZ=           -191.1061
   XY=            -11.2183   XZ=             -0.0288   YZ=              1.2870

  Exact polarizability: 761.627  46.460 410.583  -3.382   3.922 171.925
 Approx polarizability:1084.487 103.508 808.061  -7.584  14.811 290.730

                     1                      2                      3
                     A                      A                      A
 Frequencies --    17.2093                19.5654                31.4060
 Red. masses --     8.4983                 8.0161                 7.9254
 Frc consts  --     0.0015                 0.0018                 0.0046
 IR Inten    --     0.3090                 0.0032                 0.1102

                     4                      5                      6
                     A                      A                      A
 Frequencies --    52.3852                62.1845                65.2912
 Red. masses --     4.8886                 5.1583                 6.5776
 Frc consts  --     0.0079                 0.0118                 0.0165
 IR Inten    --     0.2513                 2.4300                 0.2293

                     7                      8                      9
                     A                      A                      A
 Frequencies --    78.0265                94.9576               100.1504
 Red. masses --     7.2688                 7.0159                 7.7331
 Frc consts  --     0.0261                 0.0373                 0.0457
 IR Inten    --     0.3986                 0.5950                 0.1645

                    10                     11                     12
                     A                      A                      A
 Frequencies --   145.4678               158.6919               176.6342
 Red. masses --     8.4712                 8.4321                 5.4315
 Frc consts  --     0.1056                 0.1251                 0.0998
 IR Inten    --     0.1446                 0.2192                 2.6543

                    13                     14                     15
                     A                      A                      A
 Frequencies --   195.4037               201.9435               230.9044
 Red. masses --     7.2549                 5.1558                 7.0499
 Frc consts  --     0.1632                 0.1239                 0.2215
 IR Inten    --     1.2989                 1.6208                 1.5070

                    16                     17                     18
                     A                      A                      A
 Frequencies --   237.4718               269.5031               281.5144
 Red. masses --     4.0188                 4.6058                 5.6440
 Frc consts  --     0.1335                 0.1971                 0.2635
 IR Inten    --     0.1012                 1.1431                 1.5746

                    19                     20                     21
                     A                      A                      A
 Frequencies --   289.9586               323.3666               357.4365
 Red. masses --     5.3488                 3.9929                 6.2485
 Frc consts  --     0.2650                 0.2460                 0.4704
 IR Inten    --     3.8877                 1.2784                 7.4555

                    22                     23                     24
                     A                      A                      A
 Frequencies --   390.7993               402.5589               414.8314
 Red. masses --     5.6298                 5.1050                 2.0436
 Frc consts  --     0.5066                 0.4874                 0.2072
 IR Inten    --     1.5229                 0.7921                 0.1850

                    25                     26                     27
                     A                      A                      A
 Frequencies --   422.4178               445.1779               458.0398
 Red. masses --     4.2066                 6.7830                 8.3905
 Frc consts  --     0.4422                 0.7920                 1.0372
 IR Inten    --     1.8916                 5.0926                 8.5805

                    28                     29                     30
                     A                      A                      A
 Frequencies --   476.2634               483.4519               498.4060
 Red. masses --     9.7002                14.9561                 6.7969
 Frc consts  --     1.2964                 2.0596                 0.9948
 IR Inten    --     6.1214                 2.2109                 2.2369

                    31                     32                     33
                     A                      A                      A
 Frequencies --   520.2663               526.5853               547.7472
 Red. masses --     9.0500                 7.9129                 7.6268
 Frc consts  --     1.4433                 1.2928                 1.3482
 IR Inten    --    20.8447                19.2011                 6.2437

                    34                     35                     36
                     A                      A                      A
 Frequencies --   569.9341               590.1083               593.9562
 Red. masses --     2.7362                 4.6217                 4.4195
 Frc consts  --     0.5237                 0.9482                 0.9186
 IR Inten    --     4.2769                 6.4616                 0.3363

                    37                     38                     39
                     A                      A                      A
 Frequencies --   615.8925               617.2408               621.9249
 Red. masses --     7.2730                 7.5971                 3.0731
 Frc consts  --     1.6255                 1.7053                 0.7003
 IR Inten    --     2.7342                 0.8470                 3.5061

                    40                     41                     42
                     A                      A                      A
 Frequencies --   626.3108               638.6441               654.9032
 Red. masses --     3.5650                 9.2402                 8.7220
 Frc consts  --     0.8239                 2.2205                 2.2040
 IR Inten    --     2.3963                 4.1712                 2.8006

                    43                     44                     45
                     A                      A                      A
 Frequencies --   680.9059               691.2951               724.3225
 Red. masses --     8.6458                 1.2931                 1.6964
 Frc consts  --     2.3617                 0.3641                 0.5244
 IR Inten    --     3.0113                46.0293                 3.8855

                    46                     47                     48
                     A                      A                      A
 Frequencies --   725.0896               756.8318               770.4278
 Red. masses --     4.0961                 1.2283                 7.8466
 Frc consts  --     1.2688                 0.4145                 2.7441
 IR Inten    --     2.0075                65.8738                 6.0308

                    49                     50                     51
                     A                      A                      A
 Frequencies --   776.4141               789.8704               804.2392
 Red. masses --     5.4302                 5.2878                 3.3219
 Frc consts  --     1.9286                 1.9437                 1.2659
 IR Inten    --     2.4575                 1.7653                68.8795

                    52                     53                     54
                     A                      A                      A
 Frequencies --   804.8889               826.0797               839.2181
 Red. masses --     8.8143                10.7628                10.0727
 Frc consts  --     3.3644                 4.3273                 4.1797
 IR Inten    --     0.3514                26.7843                64.3645

                    55                     56                     57
                     A                      A                      A
 Frequencies --   851.7025               875.0435               894.3567
 Red. masses --     1.6361                 1.2181                 3.2714
 Frc consts  --     0.6992                 0.5495                 1.5417
 IR Inten    --    22.5186                16.0284                53.2668

                    58                     59                     60
                     A                      A                      A
 Frequencies --   899.6394               900.6058               909.3812
 Red. masses --     6.5357                 1.4957                 1.4487
 Frc consts  --     3.1166                 0.7148                 0.7059
 IR Inten    --    19.1358                 8.3187                13.3683

                    61                     62                     63
                     A                      A                      A
 Frequencies --   933.9406               951.0960               957.6865
 Red. masses --     1.1576                 7.7449                 1.6255
 Frc consts  --     0.5949                 4.1278                 0.8784
 IR Inten    --   100.9094                 9.8414                 6.6872

                    64                     65                     66
                     A                      A                      A
 Frequencies --   960.6083               964.1608               971.3547
 Red. masses --     4.2377                 1.5471                 5.6171
 Frc consts  --     2.3040                 0.8473                 3.1226
 IR Inten    --    17.7273                 0.6299                63.7359

                    67                     68                     69
                     A                      A                      A
 Frequencies --   975.3272               988.1515               994.1777
 Red. masses --     1.5632                 1.4581                 5.4782
 Frc consts  --     0.8761                 0.8388                 3.1902
 IR Inten    --     3.5465                 4.6277                 1.8133

                    70                     71                     72
                     A                      A                      A
 Frequencies --   994.8864              1017.7092              1041.4575
 Red. masses --     1.3076                 2.5590                 2.9963
 Frc consts  --     0.7626                 1.5616                 1.9148
 IR Inten    --     0.5700                 7.9063                 6.3389

                    73                     74                     75
                     A                      A                      A
 Frequencies --  1049.6324              1107.5391              1130.2300
 Red. masses --     2.6275                 1.1834                 3.6642
 Frc consts  --     1.7056                 0.8552                 2.7578
 IR Inten    --    19.0779                 6.2903                 3.3641

                    76                     77                     78
                     A                      A                      A
 Frequencies --  1165.8493              1180.0265              1197.5708
 Red. masses --     2.6484                 1.5881                 3.5098
 Frc consts  --     2.1209                 1.3029                 2.9658
 IR Inten    --    15.5691                 6.6820                 0.5594

                    79                     80                     81
                     A                      A                      A
 Frequencies --  1273.2586              1282.3562              1290.2975
 Red. masses --     6.0837                 4.8711                 1.6366
 Frc consts  --     5.8110                 4.7195                 1.6053
 IR Inten    --    16.2471                14.0488                10.3567

                    82                     83                     84
                     A                      A                      A
 Frequencies --  1303.6067              1310.7706              1327.9796
 Red. masses --     2.6947                 2.1785                 3.2297
 Frc consts  --     2.6980                 2.2052                 3.3558
 IR Inten    --    22.2487                16.7963                55.6222

                    85                     86                     87
                     A                      A                      A
 Frequencies --  1343.3484              1345.8044              1361.5031
 Red. masses --     2.3698                 1.6679                 1.7962
 Frc consts  --     2.5197                 1.7798                 1.9617
 IR Inten    --    39.8431                 7.1279                20.9059

                    88                     89                     90
                     A                      A                      A
 Frequencies --  1365.2213              1373.2421              1385.5704
 Red. masses --     3.1507                 6.4410                 2.4302
 Frc consts  --     3.4599                 7.1565                 2.7489
 IR Inten    --    29.5956                 6.5018                21.1706

                    91                     92                     93
                     A                      A                      A
 Frequencies --  1403.2101              1422.5046              1438.1555
 Red. masses --     2.8642                 2.2794                 2.9457
 Frc consts  --     3.3228                 2.7175                 3.5896
 IR Inten    --     2.0622                 1.0827                50.5893

                    94                     95                     96
                     A                      A                      A
 Frequencies --  1478.6167              1506.1745              1513.7427
 Red. masses --     6.7543                 3.2681                 7.1261
 Frc consts  --     8.7004                 4.3682                 9.6207
 IR Inten    --    97.7966               175.3356                 1.1174

                    97                     98                     99
                     A                      A                      A
 Frequencies --  1516.5629              1531.6716              1539.2227
 Red. masses --     5.8115                 9.1315                 5.7036
 Frc consts  --     7.8751                12.6219                 7.9616
 IR Inten    --    51.6384                25.9036                 5.3087

                   100                    101                    102
                     A                      A                      A
 Frequencies --  1553.3023              1581.9032              1605.4693
 Red. masses --     5.4204                 5.4953                 5.6055
 Frc consts  --     7.7054                 8.1021                 8.5128
 IR Inten    --    11.2428                61.1142                12.4963

                   103                    104                    105
                     A                      A                      A
 Frequencies --  1613.3579              1617.4943              1633.7403
 Red. masses --     5.7958                 6.2512                 5.7450
 Frc consts  --     8.8885                 9.6361                 9.0346
 IR Inten    --     3.5683                14.0361               207.5676

                   106                    107                    108
                     A                      A                      A
 Frequencies --  2245.7038              2252.0117              3149.1078
 Red. masses --     1.0294                 1.0529                 1.0877
 Frc consts  --     3.0586                 3.1462                 6.3554
 IR Inten    --   105.4364               100.7994                31.2988

                   109                    110                    111
                     A                      A                      A
 Frequencies --  3160.2837              3165.7214              3168.5413
 Red. masses --     1.0884                 1.0910                 1.0901
 Frc consts  --     6.4043                 6.4422                 6.4483
 IR Inten    --    10.6855                34.8983                31.9072

                   112                    113                    114
                     A                      A                      A
 Frequencies --  3177.5095              3188.0953              3198.3522
 Red. masses --     1.0942                 1.0914                 1.0902
 Frc consts  --     6.5088                 6.5355                 6.5708
 IR Inten    --    45.9941                 4.2847                 7.1577

                   115                    116                    117
                     A                      A                      A
 Frequencies --  3201.5653              3210.7795              3229.5697
 Red. masses --     1.0909                 1.0947                 1.0937
 Frc consts  --     6.5883                 6.6490                 6.7213
 IR Inten    --    12.2384                10.4940                 1.6542

 - Thermochemistry -
 -------------------
 Temperature   298.150 Kelvin.  Pressure   1.00000 Atm.
 Atom     1 has atomic number 14 and mass  27.97693

 Molecular mass:   428.03342 amu.
 Principal axes and moments of inertia in atomic units:
                           1         2         3
     Eigenvalues --  4806.73399********************
           X            0.99999   0.00544  -0.00040
           Y           -0.00544   0.99998   0.00320
           Z            0.00041  -0.00320   0.99999
 This molecule is an asymmetric top.
 Rotational symmetry number  1.
 Warning -- assumption of classical behavior for rotation
           may cause significant error
 Rotational temperatures (Kelvin)      0.01802     0.00242     0.00214
 Rotational constants (GHZ):           0.37546     0.05036     0.04463
 Zero-point vibrational energy     734937.6 (Joules/Mol)
                                  175.65431 (Kcal/Mol)
 Warning -- explicit consideration of  38 degrees of freedom as
           vibrations may cause significant error
 Vibrational temperatures:     24.76    28.15    45.19    75.37    89.47
          (Kelvin)             93.94   112.26   136.62   144.09   209.30
                              228.32   254.14   281.14   290.55   332.22
                              341.67   387.75   405.04   417.19   465.25
                              514.27   562.27   579.19   596.85   607.76
                              640.51   659.02   685.24   695.58   717.09
                              748.55   757.64   788.09   820.01   849.03
                              854.57   886.13   888.07   894.81   901.12
                              918.87   942.26   979.67   994.62  1042.14
                             1043.24  1088.91  1108.47  1117.09  1136.45
                             1157.12  1158.05  1188.54  1207.45  1225.41
                             1258.99  1286.78  1294.38  1295.77  1308.40
                             1343.73  1368.41  1377.90  1382.10  1387.21
                             1397.56  1403.28  1421.73  1430.40  1431.42
                             1464.25  1498.42  1510.19  1593.50  1626.15
                             1677.39  1697.79  1723.04  1831.93  1845.02
                             1856.45  1875.60  1885.90  1910.66  1932.78
                             1936.31  1958.90  1964.25  1975.79  1993.52
                             2018.90  2046.66  2069.18  2127.40  2167.05
                             2177.94  2181.99  2203.73  2214.60  2234.85
                             2276.00  2309.91  2321.26  2327.21  2350.58
                             3231.06  3240.14  4530.86  4546.94  4554.76
                             4558.82  4571.72  4586.95  4601.71  4606.33
                             4619.59  4646.62

 Zero-point correction=                           0.279923 (Hartree/Particle)
 Thermal correction to Energy=                    0.302878
 Thermal correction to Enthalpy=                  0.303823
 Thermal correction to Gibbs Free Energy=         0.224760
 Sum of electronic and zero-point Energies=          -2183.439403
 Sum of electronic and thermal Energies=             -2183.416447
 Sum of electronic and thermal Enthalpies=           -2183.415503
 Sum of electronic and thermal Free Energies=        -2183.494565

                     E (Thermal)             CV                S
                      KCal/Mol        Cal/Mol-Kelvin    Cal/Mol-Kelvin
 Total                  190.059             90.522            166.400
 Electronic               0.000              0.000              0.000
 Translational            0.889              2.981             44.052
 Rotational               0.889              2.981             37.186
 Vibrational            188.282             84.560             85.162
 Vibration     1          0.593              1.986              6.933
 Vibration     2          0.593              1.986              6.678
 Vibration     3          0.594              1.983              5.739
 Vibration     4          0.596              1.977              4.725
 Vibration     5          0.597              1.972              4.387
 Vibration     6          0.597              1.971              4.291
 Vibration     7          0.599              1.964              3.940
 Vibration     8          0.603              1.953              3.555
 Vibration     9          0.604              1.949              3.451
 Vibration    10          0.617              1.908              2.731
 Vibration    11          0.621              1.893              2.565
 Vibration    12          0.628              1.871              2.364
 Vibration    13          0.636              1.846              2.176
 Vibration    14          0.639              1.837              2.115
 Vibration    15          0.653              1.794              1.872
 Vibration    16          0.656              1.783              1.822
 Vibration    17          0.674              1.729              1.599
 Vibration    18          0.681              1.708              1.524
 Vibration    19          0.686              1.692              1.474
 Vibration    20          0.708              1.629              1.293
 Vibration    21          0.733              1.560              1.133
 Vibration    22          0.758              1.490              0.997
 Vibration    23          0.768              1.465              0.953
 Vibration    24          0.778              1.438              0.910
 Vibration    25          0.785              1.422              0.884
 Vibration    26          0.805              1.372              0.810
 Vibration    27          0.816              1.343              0.772
 Vibration    28          0.833              1.303              0.720
 Vibration    29          0.840              1.287              0.701
 Vibration    30          0.854              1.254              0.662
 Vibration    31          0.875              1.205              0.609
 Vibration    32          0.882              1.191              0.595
 Vibration    33          0.903              1.145              0.549
 Vibration    34          0.926              1.096              0.504
 Vibration    35          0.947              1.053              0.467
 Vibration    36          0.952              1.045              0.460
 Vibration    37          0.975              0.998              0.423
 Vibration    38          0.977              0.995              0.421

 Optimization completed.
    -- Stationary point found.
 Normal termination of Gaussian 09 at Mon Dec 30 07:46:55 2013.
