 Gaussian 09, Revision C.01,
 Gaussian 09:  EM64L-G09RevC.01 23-Sep-2011

 --------------------------------------------
 #B3LYP/6-31++G(d,p) opt scf=direct freq test
 --------------------------------------------

 Geom opt of No.28 candidate from the CEPDB database with SMILE code of
  [SiH2]1C=c2c(cc3c4nsnc4c4c5sccc5c5nsnc5c4c3c2=C1)-c1cccs1, HPC, 20131
 227, Shuo Dai, Gaussian09
 ----------------------------------------------------------------------
 Charge =  0 Multiplicity = 1

 SCF Done:  E(RB3LYP) =  -2945.28180069     A.U. after   28 cycles
 SCF Done:  E(RB3LYP) =  -2945.35412616     A.U. after   23 cycles
 SCF Done:  E(RB3LYP) =  -2945.41990103     A.U. after   23 cycles
 SCF Done:  E(RB3LYP) =  -2945.46665398     A.U. after   24 cycles
 SCF Done:  E(RB3LYP) =  -2945.51306409     A.U. after   24 cycles
 SCF Done:  E(RB3LYP) =  -2945.53250668     A.U. after   19 cycles
 SCF Done:  E(RB3LYP) =  -2945.54742726     A.U. after   18 cycles
 SCF Done:  E(RB3LYP) =  -2945.56292884     A.U. after   18 cycles
 SCF Done:  E(RB3LYP) =  -2945.57316934     A.U. after   15 cycles
 SCF Done:  E(RB3LYP) =  -2945.57850335     A.U. after   16 cycles
 SCF Done:  E(RB3LYP) =  -2945.58125266     A.U. after   13 cycles
 SCF Done:  E(RB3LYP) =  -2945.58131215     A.U. after   14 cycles
 SCF Done:  E(RB3LYP) =  -2945.58134551     A.U. after   14 cycles
 SCF Done:  E(RB3LYP) =  -2945.58135673     A.U. after   14 cycles
 SCF Done:  E(RB3LYP) =  -2945.58136195     A.U. after   14 cycles
 SCF Done:  E(RB3LYP) =  -2945.58136529     A.U. after   13 cycles
 SCF Done:  E(RB3LYP) =  -2945.58136693     A.U. after   12 cycles
 SCF Done:  E(RB3LYP) =  -2945.58136742     A.U. after   11 cycles
 SCF Done:  E(RB3LYP) =  -2945.58136759     A.U. after    9 cycles
 Optimization completed.
    -- Stationary point found.
 Normal termination of Gaussian 09 at Sun Dec 29 05:18:03 2013.

 ----------------------------------------------------------------------
 #N Geom=AllCheck Guess=TCheck SCRF=Check Test GenChk RB3LYP/6-31++G(d,
 p) Freq
 ----------------------------------------------------------------------

 Geom opt of No.28 candidate from the CEPDB database with SMILE code of
  [SiH2]1C=c2c(cc3c4nsnc4c4c5sccc5c5nsnc5c4c3c2=C1)-c1cccs1, HPC, 20131
 227, Shuo Dai, Gaussian09
 ----------------------------------------------------------------------
 Charge =  0 Multiplicity = 1

                         Standard orientation:
 ---------------------------------------------------------------------
 Center     Atomic      Atomic             Coordinates (Angstroms)
 Number     Number       Type             X           Y           Z
 ---------------------------------------------------------------------
      1         14           0       -2.421128   -3.317726   -0.887450
      2          1           0       -2.759763   -4.758993   -0.814434
      3          1           0       -2.332540   -2.765434   -2.255089
      4          6           0       -2.973104   -2.234192    0.543432
      5          6           0       -2.535724   -0.821835    0.307218
      6          6           0       -3.073291    0.456976    0.120968
      7          6           0       -2.097583    1.454439   -0.042938
      8          6           0       -0.722922    1.183481   -0.047715
      9          6           0        0.199431    2.295136   -0.141602
     10          7           0       -0.145402    3.574424   -0.259184
     11         16           0        1.253928    4.452841   -0.279246
     12          7           0        2.331075    3.209031   -0.136881
     13          6           0        1.619947    2.086238   -0.073598
     14          6           0        2.183124    0.758272    0.024194
     15          6           0        3.612220    0.577082    0.070473
     16         16           0        4.831135    1.838685    0.083497
     17          6           0        6.106796    0.657187    0.167217
     18          6           0        5.648718   -0.628393    0.178205
     19          6           0        4.223567   -0.677986    0.123996
     20          6           0        3.364992   -1.818737    0.088352
     21          7           0        3.773845   -3.085031    0.060409
     22         16           0        2.413329   -4.012363   -0.034984
     23          7           0        1.281814   -2.819805   -0.038431
     24          6           0        1.918868   -1.651614    0.043221
     25          6           0        1.294210   -0.337957    0.054007
     26          6           0       -0.167343   -0.143668    0.076545
     27          6           0       -1.162531   -1.124592    0.277600
     28          6           0       -1.416689   -2.596560    0.511430
     29          6           0       -4.502276    0.768532    0.136291
     30          6           0       -5.111492    2.007895    0.173327
     31          6           0       -6.532998    1.948175    0.156928
     32          6           0       -7.009203    0.663266    0.108938
     33         16           0       -5.721955   -0.494204    0.082378
     34          1           0       -3.663129   -2.535413    1.327182
     35          1           0       -2.390408    2.491105   -0.161060
     36          1           0        7.135158    0.992632    0.200456
     37          1           0        6.277521   -1.508714    0.221317
     38          1           0       -0.915295   -3.191590    1.265591
     39          1           0       -4.557444    2.937835    0.220732
     40          1           0       -7.173752    2.822098    0.184252
     41          1           0       -8.037177    0.328085    0.088719
 ---------------------------------------------------------------------

 SCF Done:  E(RB3LYP) =  -2945.58136759     A.U. after    3 cycles

 The electronic state is 1-A.
 Alpha  occ. eigenvalues --  -88.98206 -88.98010 -88.92610 -88.92078 -66.15259
 Alpha  occ. eigenvalues --  -14.38313 -14.38116 -14.38066 -14.37972 -10.26051
 Alpha  occ. eigenvalues --  -10.25809 -10.25722 -10.25515 -10.24533 -10.24233
 Alpha  occ. eigenvalues --  -10.24180 -10.23540 -10.23076 -10.23068 -10.22586
 Alpha  occ. eigenvalues --  -10.22312 -10.22147 -10.22090 -10.21653 -10.21308
 Alpha  occ. eigenvalues --  -10.20946 -10.20672 -10.20520 -10.20507 -10.20446
 Alpha  occ. eigenvalues --  -10.20382  -8.03535  -8.03338  -7.98380  -7.97977
 Alpha  occ. eigenvalues --   -6.00115  -5.99926  -5.99529  -5.99345  -5.99248
 Alpha  occ. eigenvalues --   -5.99027  -5.94825  -5.94430  -5.94397  -5.94088
 Alpha  occ. eigenvalues --   -5.94025  -5.93702  -5.30055  -3.65946  -3.65911
 Alpha  occ. eigenvalues --   -3.65845  -1.03020  -1.02903  -0.91536  -0.91374
 Alpha  occ. eigenvalues --   -0.90569  -0.89685  -0.88783  -0.86701  -0.83433
 Alpha  occ. eigenvalues --   -0.81190  -0.79099  -0.77304  -0.74860  -0.74424
 Alpha  occ. eigenvalues --   -0.74023  -0.71628  -0.70846  -0.66709  -0.66211
 Alpha  occ. eigenvalues --   -0.64201  -0.62911  -0.61374  -0.59709  -0.59172
 Alpha  occ. eigenvalues --   -0.57286  -0.56799  -0.55222  -0.54360  -0.53533
 Alpha  occ. eigenvalues --   -0.53350  -0.52566  -0.51471  -0.50467  -0.49960
 Alpha  occ. eigenvalues --   -0.47093  -0.46539  -0.45849  -0.45629  -0.44296
 Alpha  occ. eigenvalues --   -0.43788  -0.42823  -0.42223  -0.41938  -0.40739
 Alpha  occ. eigenvalues --   -0.40636  -0.40421  -0.40367  -0.39447  -0.39209
 Alpha  occ. eigenvalues --   -0.39107  -0.38850  -0.38278  -0.36725  -0.36269
 Alpha  occ. eigenvalues --   -0.35957  -0.35571  -0.34779  -0.33803  -0.33411
 Alpha  occ. eigenvalues --   -0.32987  -0.32830  -0.31934  -0.31170  -0.30711
 Alpha  occ. eigenvalues --   -0.29992  -0.29036  -0.27359  -0.27065  -0.26141
 Alpha  occ. eigenvalues --   -0.24910  -0.24587  -0.22250  -0.21135
 Alpha virt. eigenvalues --   -0.10747  -0.07674  -0.06127  -0.04161  -0.02942
 Alpha virt. eigenvalues --   -0.01968  -0.01366  -0.01130  -0.00751  -0.00376
 Alpha virt. eigenvalues --    0.00042   0.00276   0.00595   0.00641   0.00892

 Mulliken atomic charges:
              1
     1  Si   0.557408
     2  H   -0.045860
     3  H   -0.080158
     4  C   -0.590884
     5  C   -0.152426
     6  C    0.337774
     7  C   -0.476317
     8  C    0.122848
     9  C   -0.118910
    10  N   -0.358771
    11  S    0.918667
    12  N   -0.429871
    13  C   -0.193066
    14  C    0.191050
    15  C   -0.643197
    16  S    0.105976
    17  C   -0.222089
    18  C    0.145438
    19  C   -0.018852
    20  C    0.261433
    21  N   -0.415299
    22  S    0.877962
    23  N   -0.467819
    24  C   -0.145898
    25  C    0.245458
    26  C   -0.062583
    27  C   -0.039287
    28  C   -0.281542
    29  C   -0.193361
    30  C    0.450342
    31  C   -0.513250
    32  C    0.102291
    33  S   -0.115236
    34  H    0.166328
    35  H    0.110342
    36  H    0.194705
    37  H    0.154660
    38  H    0.171212
    39  H    0.122682
    40  H    0.119297
    41  H    0.208804
 Sum of Mulliken atomic charges =  -0.00000

 Dipole moment (field-independent basis, Debye):
    X=             -1.1321    Y=             -1.0618    Z=              0.1012  Tot=              1.5554
 Quadrupole moment (field-independent basis, Debye-Ang):
   XX=           -191.1861   YY=           -201.5651   ZZ=           -215.6614
   XY=              3.4029   XZ=              0.2736   YZ=              0.4847

  Exact polarizability: 642.934  17.271 510.112   3.041   2.678 192.822
 Approx polarizability: 985.616  59.702 984.642   3.802  -6.996 337.257

                     1                      2                      3
                     A                      A                      A
 Frequencies --    13.6064                19.2627                23.3906
 Red. masses --     9.9675                 6.7973                 7.9277
 Frc consts  --     0.0011                 0.0015                 0.0026
 IR Inten    --     0.1708                 0.6010                 0.0246

                     4                      5                      6
                     A                      A                      A
 Frequencies --    58.9274                70.4157                82.8767
 Red. masses --     7.7862                 8.6823                 7.2606
 Frc consts  --     0.0159                 0.0254                 0.0294
 IR Inten    --     0.3486                 0.2334                 0.2585

                     7                      8                      9
                     A                      A                      A
 Frequencies --    91.1767               107.4848               124.7685
 Red. masses --     8.3520                 9.3314                 5.9614
 Frc consts  --     0.0409                 0.0635                 0.0547
 IR Inten    --     0.3169                 0.7074                 0.1695

                    10                     11                     12
                     A                      A                      A
 Frequencies --   138.8219               153.7463               179.3789
 Red. masses --     8.7120                 8.7027                12.0530
 Frc consts  --     0.0989                 0.1212                 0.2285
 IR Inten    --     0.6652                 0.3456                 0.5175

                    13                     14                     15
                     A                      A                      A
 Frequencies --   185.1476               196.0391               214.4419
 Red. masses --     8.0240                 8.9237                 8.6949
 Frc consts  --     0.1621                 0.2021                 0.2356
 IR Inten    --     0.4199                 0.3652                 0.7371

                    16                     17                     18
                     A                      A                      A
 Frequencies --   238.2753               264.2363               276.1716
 Red. masses --     7.2299                 7.7594                 6.8833
 Frc consts  --     0.2418                 0.3192                 0.3093
 IR Inten    --     0.9792                 1.1248                 0.1675

                    19                     20                     21
                     A                      A                      A
 Frequencies --   289.3514               304.9572               337.3389
 Red. masses --     5.7743                 6.2420                 9.1209
 Frc consts  --     0.2848                 0.3420                 0.6115
 IR Inten    --     1.6506                 1.3363                 0.1152

                    22                     23                     24
                     A                      A                      A
 Frequencies --   361.9340               373.2225               389.3386
 Red. masses --     4.4916                17.2527                 8.6979
 Frc consts  --     0.3467                 1.4159                 0.7768
 IR Inten    --     1.5951                 0.3921                 0.6952

                    25                     26                     27
                     A                      A                      A
 Frequencies --   396.1009               430.6565               452.1442
 Red. masses --     7.8777                 7.4681                 4.7199
 Frc consts  --     0.7282                 0.8161                 0.5685
 IR Inten    --     8.4398                 0.1160                 0.2671

                    28                     29                     30
                     A                      A                      A
 Frequencies --   477.9545               504.9692               511.8840
 Red. masses --     5.7202                 3.9617                 6.0278
 Frc consts  --     0.7699                 0.5952                 0.9306
 IR Inten    --     0.1522                 0.4759                 3.0926

                    31                     32                     33
                     A                      A                      A
 Frequencies --   520.2612               527.5026               537.9687
 Red. masses --     6.0239                 2.8536                 5.1467
 Frc consts  --     0.9607                 0.4678                 0.8776
 IR Inten    --     6.5451                 1.4450                 6.2800

                    34                     35                     36
                     A                      A                      A
 Frequencies --   555.9252               567.2070               577.8386
 Red. masses --     3.7299                 3.8347                 3.6907
 Frc consts  --     0.6792                 0.7269                 0.7261
 IR Inten    --     3.8372                 7.8712                 1.4535

                    37                     38                     39
                     A                      A                      A
 Frequencies --   613.9358               627.4695               633.4797
 Red. masses --     4.3319                 5.1365                 5.1486
 Frc consts  --     0.9620                 1.1915                 1.2173
 IR Inten    --     0.6098                11.1146                 1.7604

                    40                     41                     42
                     A                      A                      A
 Frequencies --   639.0655               645.5686               655.1406
 Red. masses --     5.4464                 2.7984                 3.3379
 Frc consts  --     1.3105                 0.6871                 0.8441
 IR Inten    --     3.5087                14.1921                17.6126

                    43                     44                     45
                     A                      A                      A
 Frequencies --   658.9878               677.7389               684.7852
 Red. masses --     1.7353                 8.3963                 4.2622
 Frc consts  --     0.4440                 2.2723                 1.1776
 IR Inten    --    17.1803                12.9234                12.7009

                    46                     47                     48
                     A                      A                      A
 Frequencies --   692.6448               702.8547               708.7927
 Red. masses --     6.0123                 1.2557                 5.2564
 Frc consts  --     1.6995                 0.3655                 1.5559
 IR Inten    --     5.7030                63.8483                16.2905

                    49                     50                     51
                     A                      A                      A
 Frequencies --   723.6755               744.1861               744.5949
 Red. masses --     4.5998                 3.5557                 3.6089
 Frc consts  --     1.4193                 1.1602                 1.1789
 IR Inten    --    31.2208                12.4426                13.5694

                    52                     53                     54
                     A                      A                      A
 Frequencies --   754.4988               763.3266               769.4196
 Red. masses --     6.3681                 9.9376                 5.9543
 Frc consts  --     2.1359                 3.4116                 2.0769
 IR Inten    --    31.1383                 1.6328                 1.6424

                    55                     56                     57
                     A                      A                      A
 Frequencies --   783.8239               786.5074               797.5356
 Red. masses --     7.3889                 4.1876                 4.4444
 Frc consts  --     2.6746                 1.5262                 1.6656
 IR Inten    --     2.2117                17.3447                 5.3241

                    58                     59                     60
                     A                      A                      A
 Frequencies --   818.2857               828.3709               836.7494
 Red. masses --     8.7935                11.9892                10.4486
 Frc consts  --     3.4691                 4.8472                 4.3102
 IR Inten    --    24.0995                 0.8535                40.4657

                    61                     62                     63
                     A                      A                      A
 Frequencies --   838.1106               839.4244               851.7145
 Red. masses --     3.9590                 1.6167                 1.5237
 Frc consts  --     1.6385                 0.6712                 0.6512
 IR Inten    --    30.1914                15.1600                 0.5822

                    64                     65                     66
                     A                      A                      A
 Frequencies --   858.4617               883.6090               885.9823
 Red. masses --     4.4713                 3.0219                 7.2729
 Frc consts  --     1.9414                 1.3901                 3.3636
 IR Inten    --    24.0070                46.9029                38.2461

                    67                     68                     69
                     A                      A                      A
 Frequencies --   888.5602               906.5903               913.4089
 Red. masses --     1.6306                 1.4959                 1.3090
 Frc consts  --     0.7585                 0.7244                 0.6435
 IR Inten    --    55.7364                12.9533                 1.2915

                    70                     71                     72
                     A                      A                      A
 Frequencies --   916.4773               923.5254               943.8240
 Red. masses --     1.3371                 4.7778                 2.7257
 Frc consts  --     0.6617                 2.4009                 1.4306
 IR Inten    --     0.6540                 3.0014                46.0984

                    73                     74                     75
                     A                      A                      A
 Frequencies --   970.0556               980.9732              1045.0757
 Red. masses --     2.0151                 2.6505                 2.6498
 Frc consts  --     1.1172                 1.5028                 1.7051
 IR Inten    --    54.4879                 2.2820                 2.4264

                    76                     77                     78
                     A                      A                      A
 Frequencies --  1077.8855              1096.0482              1101.8579
 Red. masses --     1.7546                 3.2876                 1.4732
 Frc consts  --     1.2011                 2.3269                 1.0538
 IR Inten    --    17.2385                 5.2301                 2.0607

                    79                     80                     81
                     A                      A                      A
 Frequencies --  1109.9804              1123.4970              1139.3531
 Red. masses --     1.2442                 2.4986                 1.7099
 Frc consts  --     0.9032                 1.8582                 1.3078
 IR Inten    --     3.9853                10.0107                 3.3823

                    82                     83                     84
                     A                      A                      A
 Frequencies --  1148.8350              1178.3208              1224.9293
 Red. masses --     1.8271                 6.3004                 3.1894
 Frc consts  --     1.4208                 5.1540                 2.8196
 IR Inten    --    46.0453                 2.0628                 0.5765

                    85                     86                     87
                     A                      A                      A
 Frequencies --  1235.1926              1250.1802              1288.5340
 Red. masses --     2.9060                 2.3716                 2.1800
 Frc consts  --     2.6122                 2.1839                 2.1326
 IR Inten    --    36.0228                10.2767                16.4435

                    88                     89                     90
                     A                      A                      A
 Frequencies --  1304.2035              1317.7853              1353.3570
 Red. masses --     5.1901                 2.4973                 5.7571
 Frc consts  --     5.2014                 2.5551                 6.2127
 IR Inten    --    40.4591                 5.6940                22.1496

                    91                     92                     93
                     A                      A                      A
 Frequencies --  1354.2197              1378.7917              1387.2557
 Red. masses --     7.8547                 6.6947                 3.8692
 Frc consts  --     8.4871                 7.4986                 4.3872
 IR Inten    --     5.2855                36.3797                 9.5429

                    94                     95                     96
                     A                      A                      A
 Frequencies --  1405.2172              1422.5576              1428.5730
 Red. masses --     7.1946                10.1284                 9.2452
 Frc consts  --     8.3703                12.0763                11.1166
 IR Inten    --     9.0015                35.4651                 8.5950

                    97                     98                     99
                     A                      A                      A
 Frequencies --  1446.3223              1461.1228              1477.3530
 Red. masses --     4.3372                10.0068                 6.6429
 Frc consts  --     5.3455                12.5869                 8.5423
 IR Inten    --     3.1625                22.8342                 2.9263

                   100                    101                    102
                     A                      A                      A
 Frequencies --  1502.2552              1517.0778              1543.5943
 Red. masses --     7.7902                 8.1079                 8.1485
 Frc consts  --    10.3583                10.9945                11.4392
 IR Inten    --    26.5397                25.6262                 9.5386

                   103                    104                    105
                     A                      A                      A
 Frequencies --  1554.4759              1564.2224              1580.5504
 Red. masses --     8.3754                 7.9534                 7.0527
 Frc consts  --    11.9241                11.4656                10.3807
 IR Inten    --     0.8519                 1.9653                 3.4852

                   106                    107                    108
                     A                      A                      A
 Frequencies --  1602.2403              1635.6214              2238.9619
 Red. masses --     9.9498                 7.1214                 1.0310
 Frc consts  --    15.0494                11.2249                 3.0452
 IR Inten    --     4.6389                57.8287               211.2632

                   109                    110                    111
                     A                      A                      A
 Frequencies --  2278.2512              3181.0137              3215.9019
 Red. masses --     1.0544                 1.0896                 1.0902
 Frc consts  --     3.2245                 6.4962                 6.6427
 IR Inten    --    80.5278                 4.1294                 7.4221

                   112                    113                    114
                     A                      A                      A
 Frequencies --  3216.0038              3222.1959              3232.6806
 Red. masses --     1.0892                 1.0901                 1.0943
 Frc consts  --     6.6371                 6.6682                 6.7379
 IR Inten    --     7.2279                 1.3187                 3.5826

                   115                    116                    117
                     A                      A                      A
 Frequencies --  3237.5790              3258.7555              3263.6659
 Red. masses --     1.0889                 1.1001                 1.0974
 Frc consts  --     6.7247                 6.8834                 6.8869
 IR Inten    --     2.2070                 0.0429                 0.3794

 - Thermochemistry -
 -------------------
 Temperature   298.150 Kelvin.  Pressure   1.00000 Atm.
 Atom     1 has atomic number 14 and mass  27.97693

 Molecular mass:   485.95576 amu.
 Principal axes and moments of inertia in atomic units:
                           1         2         3
     Eigenvalues --  9969.82572********************
           X            0.99999  -0.00341   0.00026
           Y            0.00341   0.99999   0.00125
           Z           -0.00027  -0.00125   1.00000
 This molecule is an asymmetric top.
 Rotational symmetry number  1.
 Warning -- assumption of classical behavior for rotation
           may cause significant error
 Rotational temperatures (Kelvin)      0.00869     0.00382     0.00268
 Rotational constants (GHZ):           0.18102     0.07964     0.05588
 Zero-point vibrational energy     688142.1 (Joules/Mol)
                                  164.46991 (Kcal/Mol)
 Warning -- explicit consideration of  37 degrees of freedom as
           vibrations may cause significant error
 Vibrational temperatures:     19.58    27.71    33.65    84.78   101.31
          (Kelvin)            119.24   131.18   154.65   179.51   199.73
                              221.21   258.09   266.39   282.06   308.53
                              342.82   380.18   397.35   416.31   438.76
                              485.35   520.74   536.98   560.17   569.90
                              619.62   650.53   687.67   726.54   736.49
                              748.54   758.96   774.02   799.85   816.08
                              831.38   883.32   902.79   911.43   919.47
                              928.83   942.60   948.14   975.11   985.25
                              996.56  1011.25  1019.79  1041.21  1070.72
                             1071.30  1085.55  1098.26  1107.02  1127.75
                             1131.61  1147.47  1177.33  1191.84  1203.89
                             1205.85  1207.74  1225.43  1235.13  1271.31
                             1274.73  1278.44  1304.38  1314.19  1318.60
                             1328.75  1357.95  1395.69  1411.40  1503.63
                             1550.83  1576.97  1585.33  1597.01  1616.46
                             1639.27  1652.92  1695.34  1762.40  1777.16
                             1798.73  1853.91  1876.46  1896.00  1947.18
                             1948.42  1983.77  1995.95  2021.79  2046.74
                             2055.40  2080.93  2102.23  2125.58  2161.41
                             2182.73  2220.89  2236.54  2250.56  2274.06
                             2305.26  2353.29  3221.36  3277.89  4576.76
                             4626.96  4627.11  4636.02  4651.10  4658.15
                             4688.62  4695.68

 Zero-point correction=                           0.262099 (Hartree/Particle)
 Thermal correction to Energy=                    0.285828
 Thermal correction to Enthalpy=                  0.286772
 Thermal correction to Gibbs Free Energy=         0.206515
 Sum of electronic and zero-point Energies=          -2945.319268
 Sum of electronic and thermal Energies=             -2945.295540
 Sum of electronic and thermal Enthalpies=           -2945.294595
 Sum of electronic and thermal Free Energies=        -2945.374853

                     E (Thermal)             CV                S
                      KCal/Mol        Cal/Mol-Kelvin    Cal/Mol-Kelvin
 Total                  179.360             95.575            168.915
 Electronic               0.000              0.000              0.000
 Translational            0.889              2.981             44.431
 Rotational               0.889              2.981             37.232
 Vibrational            177.582             89.614             87.253
 Vibration     1          0.593              1.986              7.399
 Vibration     2          0.593              1.986              6.709
 Vibration     3          0.593              1.985              6.323
 Vibration     4          0.596              1.974              4.493
 Vibration     5          0.598              1.968              4.142
 Vibration     6          0.600              1.961              3.822
 Vibration     7          0.602              1.955              3.635
 Vibration     8          0.606              1.943              3.314
 Vibration     9          0.610              1.928              3.025
 Vibration    10          0.614              1.915              2.820
 Vibration    11          0.619              1.899              2.625
 Vibration    12          0.629              1.868              2.335
 Vibration    13          0.631              1.860              2.276
 Vibration    14          0.636              1.845              2.170
 Vibration    15          0.644              1.819              2.006
 Vibration    16          0.656              1.782              1.816
 Vibration    17          0.671              1.739              1.634
 Vibration    18          0.678              1.717              1.557
 Vibration    19          0.686              1.694              1.478
 Vibration    20          0.696              1.664              1.390
 Vibration    21          0.718              1.601              1.225
 Vibration    22          0.736              1.551              1.114
 Vibration    23          0.745              1.527              1.067
 Vibration    24          0.757              1.493              1.003
 Vibration    25          0.763              1.478              0.977
 Vibration    26          0.792              1.403              0.857
 Vibration    27          0.811              1.356              0.789
 Vibration    28          0.834              1.299              0.716
 Vibration    29          0.860              1.239              0.646
 Vibration    30          0.867              1.224              0.629
 Vibration    31          0.875              1.205              0.609
 Vibration    32          0.882              1.189              0.593
 Vibration    33          0.893              1.166              0.570
 Vibration    34          0.911              1.127              0.532
 Vibration    35          0.923              1.102              0.510
 Vibration    36          0.934              1.079              0.489
 Vibration    37          0.973              1.002              0.426

 Normal termination of Gaussian 09 at Sun Dec 29 07:27:39 2013.
