 Gaussian 09, Revision C.01,
 Gaussian 09:  EM64L-G09RevC.01 23-Sep-2011

 --------------------------------------------
 #B3LYP/6-31++G(d,p) opt scf=direct freq test
 --------------------------------------------

 Geom opt of No.69 candidate from the CEPDB database with SMILE code of
  C1C=c2ccc3ncc4c5ncc(cc5c5cscc5c4c3c2=C1)-c1nccc2nsnc12, HPC, 20131227
 , Shuo Dai, Gaussian09
 ----------------------------------------------------------------------
 Charge =  0 Multiplicity = 1

 SCF Done:  E(RB3LYP) =  -2067.68675018     A.U. after   43 cycles
 SCF Done:  E(RB3LYP) =  -2067.82580281     A.U. after   29 cycles
 SCF Done:  E(RB3LYP) =  -2068.05209433     A.U. after   33 cycles
 SCF Done:  E(RB3LYP) =  -2068.25463872     A.U. after   29 cycles
 SCF Done:  E(RB3LYP) =  -2068.32391184     A.U. after   19 cycles
 SCF Done:  E(RB3LYP) =  -2068.41136244     A.U. after   17 cycles
 SCF Done:  E(RB3LYP) =  -2068.46549456     A.U. after   16 cycles
 SCF Done:  E(RB3LYP) =  -2068.51764540     A.U. after   16 cycles
 SCF Done:  E(RB3LYP) =  -2068.53827137     A.U. after   18 cycles
 SCF Done:  E(RB3LYP) =  -2068.55781911     A.U. after   19 cycles
 SCF Done:  E(RB3LYP) =  -2068.56902663     A.U. after   14 cycles
 SCF Done:  E(RB3LYP) =  -2068.56903040     A.U. after   13 cycles
 SCF Done:  E(RB3LYP) =  -2068.56903215     A.U. after   14 cycles
 SCF Done:  E(RB3LYP) =  -2068.56903336     A.U. after   13 cycles
 SCF Done:  E(RB3LYP) =  -2068.56903437     A.U. after   13 cycles
 SCF Done:  E(RB3LYP) =  -2068.56903477     A.U. after   12 cycles
 SCF Done:  E(RB3LYP) =  -2068.56903487     A.U. after   11 cycles
 SCF Done:  E(RB3LYP) =  -2068.56903493     A.U. after   11 cycles
 SCF Done:  E(RB3LYP) =  -2068.56903495     A.U. after   11 cycles
 Optimization completed.
    -- Stationary point found.

 1\1\GINC-N034\FOpt\RB3LYP\6-31++G(d,p)\C26H13N5S2\SHUO\29-Dec-2013\0\\
 #B3LYP/6-31++G(d,p) opt scf=direct freq test\\Geom opt of No.69 candid
 ate from the CEPDB database with SMILE code of C1C=c2ccc3ncc4c5ncc(cc5
 c5cscc5c4c3c2=C1)-c1nccc2nsnc12, HPC, 20131227, Shuo Dai, Gaussian09\\
 0,1\C,3.9474811553,0.2841629696,-1.3670507557\C,4.0806708143,0.2896435
 241,0.1311137811\C,4.2566927911,-1.1347359195,0.6111363702\C,3.9864064
 575,-2.0605254114,1.616132346\C,4.6580895013,-3.2587831591,1.184169994
 4\C,6.1074108967,-3.1758745648,1.2327031102\N,6.9884463698,-3.61676275

 Normal termination of Gaussian 09 at Sun Dec 29 23:56:51 2013.

 ----------------------------------------------------------------------
 #N Geom=AllCheck Guess=TCheck SCRF=Check Test GenChk RB3LYP/6-31++G(d,
 p) Freq
 ----------------------------------------------------------------------

 Geom opt of No.69 candidate from the CEPDB database with SMILE code of
  C1C=c2ccc3ncc4c5ncc(cc5c5cscc5c4c3c2=C1)-c1nccc2nsnc12, HPC, 20131227
 , Shuo Dai, Gaussian09
 ----------------------------------------------------------------------
 Charge =  0 Multiplicity = 1

                         Standard orientation:
 ---------------------------------------------------------------------
 Center     Atomic      Atomic             Coordinates (Angstroms)
 Number     Number       Type             X           Y           Z
 ---------------------------------------------------------------------
      1          6           0       -6.788120    1.274274    0.839450
      2          6           0       -6.519430    0.013297    1.614052
      3          6           0       -6.069289   -1.064571    0.651849
      4          6           0       -6.090372   -2.421984    0.340171
      5          6           0       -5.274822   -2.526901   -0.841964
      6          6           0       -3.860358   -2.293255   -0.608591
      7          7           0       -2.840517   -3.128989   -0.453123
      8          6           0       -1.632237   -2.593028   -0.247820
      9          6           0       -1.361158   -1.207078   -0.252464
     10          6           0        0.022537   -0.728894   -0.142834
     11          7           0        0.994384   -1.651667    0.013573
     12          6           0        2.257218   -1.258368    0.131537
     13          6           0        2.659129    0.097037    0.111818
     14          6           0        1.648845    1.050776   -0.043644
     15          6           0        0.314604    0.659862   -0.180708
     16          6           0       -0.779815    1.602546   -0.387435
     17          6           0       -0.690170    2.967117   -0.553749
     18         16           0       -2.233179    3.677463   -0.855865
     19          6           0       -3.029143    2.153586   -0.754066
     20          6           0       -2.143765    1.127135   -0.486113
     21          6           0       -2.439223   -0.291665   -0.350967
     22          6           0       -3.752482   -0.843916   -0.342764
     23          6           0       -4.946129   -0.288359    0.213407
     24          6           0       -5.336774    0.878294    1.082793
     25          6           0        4.062217    0.542448    0.270494
     26          7           0        4.263293    1.822081    0.539879
     27          6           0        5.521714    2.328741    0.701720
     28          6           0        6.683349    1.602832    0.611147
     29          6           0        6.538461    0.223476    0.311935
     30          7           0        7.522221   -0.674238    0.153986
     31         16           0        6.791934   -2.101352   -0.200203
     32          7           0        5.219974   -1.636269   -0.164814
     33          6           0        5.210769   -0.330061    0.133548
     34          1           0       -7.135240    2.124510    1.423591
     35          1           0       -7.196967    1.215019   -0.166669
     36          1           0       -6.800399   -0.104362    2.654618
     37          1           0       -6.307331   -3.203659    1.065036
     38          1           0       -5.613590   -1.790012   -1.576847
     39          1           0       -0.804772   -3.283783   -0.132343
     40          1           0        2.990149   -2.046950    0.253307
     41          1           0        1.926909    2.098258   -0.055613
     42          1           0        0.191933    3.591129   -0.535832
     43          1           0       -4.092745    2.091323   -0.926646
     44          1           0       -4.664503    1.493533    1.667482
     45          1           0        5.556877    3.392217    0.922301
     46          1           0        7.660772    2.048531    0.753396
 ---------------------------------------------------------------------

 SCF Done:  E(RB3LYP) =  -2068.56903495     A.U. after    2 cycles

 The electronic state is 1-A.
 Alpha  occ. eigenvalues --  -89.00083 -88.93760 -14.39992 -14.39462 -14.36066
 Alpha  occ. eigenvalues --  -14.34326 -14.33940 -10.27416 -10.26995 -10.26937
 Alpha  occ. eigenvalues --  -10.25012 -10.24861 -10.24659 -10.23619 -10.23529
 Alpha  occ. eigenvalues --  -10.23447 -10.23401 -10.23184 -10.23003 -10.22940
 Alpha  occ. eigenvalues --  -10.22589 -10.22558 -10.22503 -10.22401 -10.22391
 Alpha  occ. eigenvalues --  -10.22379 -10.22348 -10.22337 -10.21979 -10.21946
 Alpha  occ. eigenvalues --  -10.21312 -10.21218 -10.20143  -8.05392  -7.99635
 Alpha  occ. eigenvalues --   -6.01942  -6.01357  -6.01163  -5.96039  -5.95659
 Alpha  occ. eigenvalues --   -5.95408  -1.04547  -0.97051  -0.96141  -0.95206
 Alpha  occ. eigenvalues --   -0.93604  -0.91707  -0.91019  -0.85116  -0.84389
 Alpha  occ. eigenvalues --   -0.83643  -0.82084  -0.80897  -0.77981  -0.75888
 Alpha  occ. eigenvalues --   -0.75157  -0.73885  -0.73194  -0.69374  -0.67154
 Alpha  occ. eigenvalues --   -0.66898  -0.65677  -0.64208  -0.63512  -0.63207
 Alpha  occ. eigenvalues --   -0.61207  -0.59767  -0.59618  -0.57984  -0.55472
 Alpha  occ. eigenvalues --   -0.55086  -0.54281  -0.52684  -0.52220  -0.51587
 Alpha  occ. eigenvalues --   -0.50671  -0.49958  -0.48948  -0.48569  -0.48057
 Alpha  occ. eigenvalues --   -0.47838  -0.46960  -0.46247  -0.44578  -0.44146
 Alpha  occ. eigenvalues --   -0.43572  -0.42967  -0.42641  -0.42132  -0.41461
 Alpha  occ. eigenvalues --   -0.41161  -0.40550  -0.40456  -0.40259  -0.39741
 Alpha  occ. eigenvalues --   -0.39548  -0.37947  -0.37599  -0.36732  -0.36112
 Alpha  occ. eigenvalues --   -0.35974  -0.35066  -0.34686  -0.33918  -0.32705
 Alpha  occ. eigenvalues --   -0.32399  -0.31873  -0.30693  -0.30208  -0.28534
 Alpha  occ. eigenvalues --   -0.27626  -0.27326  -0.26031  -0.25357  -0.25095
 Alpha  occ. eigenvalues --   -0.24193  -0.22200  -0.19866
 Alpha virt. eigenvalues --   -0.11978  -0.10163  -0.06926  -0.06235  -0.04552
 Alpha virt. eigenvalues --   -0.02653  -0.02478  -0.01953  -0.01138  -0.01091
 Alpha virt. eigenvalues --   -0.00446  -0.00110   0.00014   0.00216   0.00577

 Mulliken atomic charges:
              1
     1  C   -0.609226
     2  C   -0.234306
     3  C    0.151173
     4  C    0.263923
     5  C   -0.399324
     6  C   -0.646269
     7  N   -0.096503
     8  C    0.308058
     9  C   -0.648887
    10  C   -0.577370
    11  N   -0.107221
    12  C    0.063957
    13  C    0.034379
    14  C    0.047523
    15  C    0.460107
    16  C   -0.190367
    17  C    0.388413
    18  S    0.078972
    19  C   -0.030825
    20  C   -0.283970
    21  C    0.223670
    22  C    0.446479
    23  C   -0.548574
    24  C    0.056886
    25  C   -0.347260
    26  N   -0.094446
    27  C    0.141343
    28  C   -0.164427
    29  C    0.288906
    30  N   -0.427694
    31  S    0.859029
    32  N   -0.455971
    33  C   -0.347952
    34  H    0.155077
    35  H    0.191320
    36  H    0.168691
    37  H    0.162528
    38  H    0.202024
    39  H    0.245747
    40  H    0.234171
    41  H    0.131934
    42  H    0.185155
    43  H    0.196556
    44  H    0.192210
    45  H    0.156846
    46  H    0.175512
 Sum of Mulliken atomic charges =  -0.00000

 Dipole moment (field-independent basis, Debye):
    X=              0.2908    Y=              5.2390    Z=              1.9187  Tot=              5.5869
 Quadrupole moment (field-independent basis, Debye-Ang):
   XX=           -177.4774   YY=           -205.8419   ZZ=           -202.0858
   XY=            -14.1913   XZ=            -10.4970   YZ=             -3.3444

  Exact polarizability: 703.984  16.910 440.416   2.489  17.427 204.997
 Approx polarizability:1003.925  44.604 906.808  24.902  62.728 362.462

                     1                      2                      3
                     A                      A                      A
 Frequencies --    11.5231                21.9198                45.3995
 Red. masses --    10.0362                 6.7893                 6.7029
 Frc consts  --     0.0008                 0.0019                 0.0081
 IR Inten    --     0.4110                 0.3608                 0.1944

                     4                      5                      6
                     A                      A                      A
 Frequencies --    55.2334                71.5911                92.6742
 Red. masses --     7.4252                 5.7222                 5.8536
 Frc consts  --     0.0133                 0.0173                 0.0296
 IR Inten    --     0.5909                 1.0217                 0.2655

                     7                      8                      9
                     A                      A                      A
 Frequencies --    96.4549               103.8813               121.3867
 Red. masses --     5.8720                 5.4808                 7.6507
 Frc consts  --     0.0322                 0.0348                 0.0664
 IR Inten    --     0.3689                 0.2454                 0.2318

                    10                     11                     12
                     A                      A                      A
 Frequencies --   145.8043               179.4829               188.6513
 Red. masses --    11.6021                 6.1461                 6.2388
 Frc consts  --     0.1453                 0.1167                 0.1308
 IR Inten    --     0.2103                 3.0582                 0.6980

                    13                     14                     15
                     A                      A                      A
 Frequencies --   193.4768               197.9364               214.7423
 Red. masses --     4.3242                 5.9287                 4.9632
 Frc consts  --     0.0954                 0.1369                 0.1348
 IR Inten    --     0.3606                 1.7201                 2.9217

                    16                     17                     18
                     A                      A                      A
 Frequencies --   226.8884               273.1422               281.4439
 Red. masses --     7.4522                 2.8636                 5.3351
 Frc consts  --     0.2260                 0.1259                 0.2490
 IR Inten    --     4.5050                 3.5920                 6.7420

                    19                     20                     21
                     A                      A                      A
 Frequencies --   304.0213               324.3965               345.1791
 Red. masses --     6.9466                 5.4540                 8.1088
 Frc consts  --     0.3783                 0.3382                 0.5692
 IR Inten    --     0.3669                 8.8507                 8.0491

                    22                     23                     24
                     A                      A                      A
 Frequencies --   384.7815               403.6992               423.0649
 Red. masses --     6.7588                 8.7868                 4.6995
 Frc consts  --     0.5896                 0.8437                 0.4956
 IR Inten    --    10.0667                 0.1332                 5.9896

                    25                     26                     27
                     A                      A                      A
 Frequencies --   430.1686               441.5875               455.1915
 Red. masses --     4.7122                 7.2874                 5.0713
 Frc consts  --     0.5137                 0.8373                 0.6191
 IR Inten    --     0.0626                 2.4314                 1.4911

                    28                     29                     30
                     A                      A                      A
 Frequencies --   459.2432               470.4474               487.9847
 Red. masses --     4.8850                 5.1795                 4.4683
 Frc consts  --     0.6070                 0.6754                 0.6269
 IR Inten    --     0.5378                13.6869                 3.6781

                    31                     32                     33
                     A                      A                      A
 Frequencies --   505.3675               536.0430               539.1625
 Red. masses --     5.6844                 7.6958                 5.5522
 Frc consts  --     0.8554                 1.3029                 0.9509
 IR Inten    --     0.7917                 3.4297                13.3054

                    34                     35                     36
                     A                      A                      A
 Frequencies --   547.3784               562.5633               567.5898
 Red. masses --     6.4798                 5.6682                 5.4983
 Frc consts  --     1.1439                 1.0569                 1.0436
 IR Inten    --    26.1780                 8.1275                11.4143

                    37                     38                     39
                     A                      A                      A
 Frequencies --   593.8697               609.0103               620.2567
 Red. masses --     4.5459                 6.2261                 6.1835
 Frc consts  --     0.9446                 1.3606                 1.4016
 IR Inten    --     0.2632                 3.5503                 6.6146

                    40                     41                     42
                     A                      A                      A
 Frequencies --   629.8170               639.9306               650.3517
 Red. masses --     6.4295                 5.4311                 5.0081
 Frc consts  --     1.5026                 1.3104                 1.2480
 IR Inten    --     5.2638                 7.8973                 1.5183

                    43                     44                     45
                     A                      A                      A
 Frequencies --   668.9543               680.7291               686.0263
 Red. masses --     2.5999                 5.8500                 2.0877
 Frc consts  --     0.6855                 1.5972                 0.5789
 IR Inten    --     5.0674                14.0296                 5.5495

                    46                     47                     48
                     A                      A                      A
 Frequencies --   688.2225               692.8834               735.2963
 Red. masses --     4.4031                 5.5830                 6.3795
 Frc consts  --     1.2287                 1.5792                 2.0322
 IR Inten    --    20.2639                16.2229                16.4898

                    49                     50                     51
                     A                      A                      A
 Frequencies --   742.3091               749.3508               764.6884
 Red. masses --     5.2782                 4.8065                 3.6332
 Frc consts  --     1.7136                 1.5902                 1.2517
 IR Inten    --     9.8023                14.8523                12.2468

                    52                     53                     54
                     A                      A                      A
 Frequencies --   783.7853               800.6728               802.6660
 Red. masses --     2.7959                 2.2870                 4.7393
 Frc consts  --     1.0120                 0.8638                 1.7990
 IR Inten    --    45.1147                27.7800                 2.8514

                    55                     56                     57
                     A                      A                      A
 Frequencies --   810.2780               825.6556               832.3744
 Red. masses --     4.6564                 4.6181                 2.2408
 Frc consts  --     1.8012                 1.8548                 0.9147
 IR Inten    --    11.9221                 2.3639                10.7532

                    58                     59                     60
                     A                      A                      A
 Frequencies --   832.8833               835.8685               839.7401
 Red. masses --     2.0841                 5.6367                 7.5559
 Frc consts  --     0.8518                 2.3203                 3.1393
 IR Inten    --    32.8505                11.9025                59.1659

                    61                     62                     63
                     A                      A                      A
 Frequencies --   854.5239               863.4149               876.8354
 Red. masses --     2.4163                 2.1019                 4.2877
 Frc consts  --     1.0395                 0.9232                 1.9423
 IR Inten    --     9.9041                20.6984                10.2979

                    64                     65                     66
                     A                      A                      A
 Frequencies --   878.1162               894.3913               908.3752
 Red. masses --     5.4283                 5.7436                 4.2378
 Frc consts  --     2.4662                 2.7070                 2.0602
 IR Inten    --    28.8562                18.9500                 0.9422

                    67                     68                     69
                     A                      A                      A
 Frequencies --   936.7522               947.0203               953.6002
 Red. masses --     4.2295                 1.5514                 1.5506
 Frc consts  --     2.1867                 0.8198                 0.8308
 IR Inten    --     2.1276                27.0687                 0.9224

                    70                     71                     72
                     A                      A                      A
 Frequencies --   963.1765               968.4700               980.8544
 Red. masses --     3.3201                 1.4898                 1.5546
 Frc consts  --     1.8147                 0.8233                 0.8812
 IR Inten    --     2.2414                 6.8185                40.6151

                    73                     74                     75
                     A                      A                      A
 Frequencies --   987.0240              1006.6183              1024.4986
 Red. masses --     1.3627                 2.2057                 1.4702
 Frc consts  --     0.7822                 1.3168                 0.9092
 IR Inten    --     0.0703                 9.4617                25.6507

                    76                     77                     78
                     A                      A                      A
 Frequencies --  1036.1163              1055.0414              1071.7659
 Red. masses --     1.8678                 2.4230                 2.0106
 Frc consts  --     1.1814                 1.5891                 1.3607
 IR Inten    --     2.0122                22.9009                 6.4687

                    79                     80                     81
                     A                      A                      A
 Frequencies --  1080.0516              1081.9473              1096.3390
 Red. masses --     2.0936                 2.5582                 1.3633
 Frc consts  --     1.4389                 1.7644                 0.9654
 IR Inten    --    12.5280                67.9851                10.6313

                    82                     83                     84
                     A                      A                      A
 Frequencies --  1105.7922              1160.6910              1167.6467
 Red. masses --     2.8090                 2.4222                 1.8362
 Frc consts  --     2.0237                 1.9226                 1.4750
 IR Inten    --    19.7263                24.4709                13.4957

                    85                     86                     87
                     A                      A                      A
 Frequencies --  1173.8692              1196.6824              1200.7582
 Red. masses --     1.9846                 1.7004                 2.4963
 Frc consts  --     1.6112                 1.4347                 2.1206
 IR Inten    --    11.3715                 3.1682                 2.2472

                    88                     89                     90
                     A                      A                      A
 Frequencies --  1224.9320              1236.4509              1248.8164
 Red. masses --     3.3265                 2.3443                 2.4262
 Frc consts  --     2.9408                 2.1116                 2.2293
 IR Inten    --    41.3200                11.8320                 4.0735

                    91                     92                     93
                     A                      A                      A
 Frequencies --  1254.9259              1264.4508              1279.1267
 Red. masses --     2.5661                 2.1529                 2.7656
 Frc consts  --     2.3810                 2.0280                 2.6660
 IR Inten    --     2.7765                 5.6287                11.7898

                    94                     95                     96
                     A                      A                      A
 Frequencies --  1298.4045              1311.6090              1321.7794
 Red. masses --     2.7982                 4.3384                 2.3363
 Frc consts  --     2.7794                 4.3974                 2.4049
 IR Inten    --    26.8976                35.3936                63.3873

                    97                     98                     99
                     A                      A                      A
 Frequencies --  1335.1599              1345.8007              1355.1785
 Red. masses --     2.4751                 3.8729                 3.2949
 Frc consts  --     2.5996                 4.1328                 3.5652
 IR Inten    --     0.4427                86.3630                 1.3806

                   100                    101                    102
                     A                      A                      A
 Frequencies --  1365.8369              1380.0812              1397.4017
 Red. masses --     5.9659                 4.4925                 3.7553
 Frc consts  --     6.5572                 5.0413                 4.3205
 IR Inten    --    17.3693                55.6616                52.7940

                   103                    104                    105
                     A                      A                      A
 Frequencies --  1405.3087              1414.9943              1433.6884
 Red. masses --     4.3447                 2.7778                 2.4958
 Frc consts  --     5.0554                 3.2769                 3.0225
 IR Inten    --    13.2542                70.1329                 4.5111

                   106                    107                    108
                     A                      A                      A
 Frequencies --  1453.1268              1475.5563              1485.1441
 Red. masses --     3.4568                 5.1709                 2.8507
 Frc consts  --     4.3006                 6.6332                 3.7046
 IR Inten    --   127.3179                91.9411                32.4244

                   109                    110                    111
                     A                      A                      A
 Frequencies --  1488.7491              1497.8574              1506.1049
 Red. masses --     1.4315                 5.6520                 5.3229
 Frc consts  --     1.8693                 7.4712                 7.1139
 IR Inten    --    19.1971               145.4223                 6.5257

                   112                    113                    114
                     A                      A                      A
 Frequencies --  1516.8698              1544.1373              1548.5900
 Red. masses --     5.5025                 6.4257                 4.7480
 Frc consts  --     7.4595                 9.0270                 6.7087
 IR Inten    --    21.0180                57.8884                84.1340

                   115                    116                    117
                     A                      A                      A
 Frequencies --  1552.9440              1574.5075              1598.8797
 Red. masses --     6.1089                 6.3506                 8.6401
 Frc consts  --     8.6801                 9.2758                13.0137
 IR Inten    --    40.2452                26.0940                 9.7050

                   118                    119                    120
                     A                      A                      A
 Frequencies --  1618.1374              1641.5483              3051.5439
 Red. masses --     7.3390                 6.1696                 1.0833
 Frc consts  --    11.3218                 9.7952                 5.9434
 IR Inten    --    59.3896               121.3778                19.4062

                   121                    122                    123
                     A                      A                      A
 Frequencies --  3116.4404              3171.7762              3187.3168
 Red. masses --     1.0539                 1.0895                 1.0899
 Frc consts  --     6.0307                 6.4580                 6.5234
 IR Inten    --    38.0719                16.3175                29.9176

                   124                    125                    126
                     A                      A                      A
 Frequencies --  3203.5165              3211.6890              3222.7209
 Red. masses --     1.1141                 1.0956                 1.0905
 Frc consts  --     6.7365                 6.6581                 6.6728
 IR Inten    --     3.3972                13.5205                 1.4014

                   127                    128                    129
                     A                      A                      A
 Frequencies --  3223.6592              3229.2281              3229.8671
 Red. masses --     1.0906                 1.0913                 1.0941
 Frc consts  --     6.6776                 6.7049                 6.7249
 IR Inten    --     0.7900                 0.6402                 3.0947

                   130                    131                    132
                     A                      A                      A
 Frequencies --  3230.7324              3266.8140              3283.8319
 Red. masses --     1.0952                 1.0934                 1.0935
 Frc consts  --     6.7352                 6.8749                 6.9477
 IR Inten    --     4.1214                 0.9872                 1.4450

 - Thermochemistry -
 -------------------
 Temperature   298.150 Kelvin.  Pressure   1.00000 Atm.
 Atom     1 has atomic number  6 and mass  12.00000

 Molecular mass:   459.06124 amu.
 Principal axes and moments of inertia in atomic units:
                           1         2         3
     Eigenvalues --  6374.47043********************
           X            0.99999   0.00343  -0.00191
           Y           -0.00343   0.99999   0.00338
           Z            0.00192  -0.00337   0.99999
 This molecule is an asymmetric top.
 Rotational symmetry number  1.
 Warning -- assumption of classical behavior for rotation
           may cause significant error
 Rotational temperatures (Kelvin)      0.01359     0.00258     0.00223
 Rotational constants (GHZ):           0.28312     0.05376     0.04649
 Zero-point vibrational energy     853539.9 (Joules/Mol)
                                  204.00093 (Kcal/Mol)
 Warning -- explicit consideration of  39 degrees of freedom as
           vibrations may cause significant error
 Vibrational temperatures:     16.58    31.54    65.32    79.47   103.00
          (Kelvin)            133.34   138.78   149.46   174.65   209.78
                              258.24   271.43   278.37   284.79   308.97
                              326.44   392.99   404.93   437.42   466.73
                              496.64   553.61   580.83   608.70   618.92
                              635.35   654.92   660.75   676.87   702.10
                              727.11   771.25   775.73   787.55   809.40
                              816.63   854.44   876.23   892.41   906.17
                              920.72   935.71   962.47   979.42   987.04
                              990.20   996.90  1057.93  1068.02  1078.15
                             1100.21  1127.69  1151.99  1154.86  1165.81
                             1187.93  1197.60  1198.33  1202.63  1208.20
                             1229.47  1242.26  1261.57  1263.41  1286.83
                             1306.95  1347.78  1362.55  1372.02  1385.79
                             1393.41  1411.23  1420.11  1448.30  1474.02
                             1490.74  1517.97  1542.03  1553.95  1556.68
                             1577.39  1590.99  1669.97  1679.98  1688.93
                             1721.76  1727.62  1762.40  1778.97  1796.77
                             1805.56  1819.26  1840.38  1868.11  1887.11
                             1901.74  1920.99  1936.30  1949.80  1965.13
                             1985.63  2010.55  2021.92  2035.86  2062.76
                             2090.72  2122.99  2136.79  2141.98  2155.08
                             2166.95  2182.43  2221.67  2228.07  2234.34
                             2265.36  2300.43  2328.14  2361.82  4390.49
                             4483.86  4563.47  4585.83  4609.14  4620.90
                             4636.77  4638.12  4646.13  4647.05  4648.30
                             4700.21  4724.70

 Zero-point correction=                           0.325096 (Hartree/Particle)
 Thermal correction to Energy=                    0.348607
 Thermal correction to Enthalpy=                  0.349552
 Thermal correction to Gibbs Free Energy=         0.270422
 Sum of electronic and zero-point Energies=          -2068.243939
 Sum of electronic and thermal Energies=             -2068.220427
 Sum of electronic and thermal Enthalpies=           -2068.219483
 Sum of electronic and thermal Free Energies=        -2068.298613

                     E (Thermal)             CV                S
                      KCal/Mol        Cal/Mol-Kelvin    Cal/Mol-Kelvin
 Total                  218.754             96.511            166.542
 Electronic               0.000              0.000              0.000
 Translational            0.889              2.981             44.261
 Rotational               0.889              2.981             37.361
 Vibrational            216.977             90.550             84.921
 Vibration     1          0.593              1.987              7.729
 Vibration     2          0.593              1.985              6.452
 Vibration     3          0.595              1.979              5.008
 Vibration     4          0.596              1.975              4.621
 Vibration     5          0.598              1.968              4.109
 Vibration     6          0.602              1.954              3.603
 Vibration     7          0.603              1.952              3.525
 Vibration     8          0.605              1.946              3.380
 Vibration     9          0.609              1.931              3.078
 Vibration    10          0.617              1.907              2.726
 Vibration    11          0.629              1.868              2.334
 Vibration    12          0.633              1.855              2.241
 Vibration    13          0.635              1.849              2.194
 Vibration    14          0.637              1.843              2.152
 Vibration    15          0.645              1.819              2.003
 Vibration    16          0.651              1.800              1.903
 Vibration    17          0.676              1.723              1.576
 Vibration    18          0.681              1.708              1.525
 Vibration    19          0.695              1.666              1.395
 Vibration    20          0.709              1.627              1.288
 Vibration    21          0.724              1.585              1.188
 Vibration    22          0.754              1.503              1.020
 Vibration    23          0.769              1.462              0.949
 Vibration    24          0.785              1.420              0.882
 Vibration    25          0.791              1.405              0.858
 Vibration    26          0.801              1.379              0.822
 Vibration    27          0.814              1.349              0.780
 Vibration    28          0.817              1.340              0.768
 Vibration    29          0.827              1.316              0.736
 Vibration    30          0.844              1.277              0.689
 Vibration    31          0.861              1.238              0.645
 Vibration    32          0.891              1.170              0.574
 Vibration    33          0.894              1.163              0.567
 Vibration    34          0.903              1.145              0.550
 Vibration    35          0.918              1.112              0.519
 Vibration    36          0.924              1.101              0.509
 Vibration    37          0.951              1.045              0.460
 Vibration    38          0.968              1.013              0.434
 Vibration    39          0.980              0.989              0.416

 Optimization completed.
    -- Stationary point found.

 1\1\GINC-N034\Freq\RB3LYP\6-31++G(d,p)\C26H13N5S2\SHUO\30-Dec-2013\0\\
 #N Geom=AllCheck Guess=TCheck SCRF=Check Test GenChk RB3LYP/6-31++G(d,
 p) Freq\\Geom opt of No.69 candidate from the CEPDB database with SMIL
 E code of C1C=c2ccc3ncc4c5ncc(cc5c5cscc5c4c3c2=C1)-c1nccc2nsnc12, HPC,
  20131227, Shuo Dai, Gaussian09\\0,1\C,3.9474811553,0.2841629696,-1.36
 70507557\C,4.0806708143,0.2896435241,0.1311137811\C,4.2566927911,-1.13
 47359195,0.6111363702\C,3.9864064575,-2.0605254114,1.616132346\C,4.658
 0895013,-3.2587831591,1.1841699944\C,6.1074108967,-3.1758745648,1.2327

 Normal termination of Gaussian 09 at Mon Dec 30 03:11:03 2013.
