 Gaussian 09, Revision C.01,
 Gaussian 09:  EM64L-G09RevC.01 23-Sep-2011

 --------------------------------------------
 #B3LYP/6-31++G(d,p) opt scf=direct freq test
 --------------------------------------------

 Geom opt of No.27 candidate from the CEPDB database with SMILE code of
  C1C=Cc2c1c1cnc3C=C(Cc3c1c1=C[SiH2]C=c21)c1nccc2nsnc12, HPC, 20131227,
  Shuo Dai, Gaussian09
 ----------------------------------------------------------------------
 Charge =  0 Multiplicity = 1

 SCF Done:  E(RB3LYP) =  -1752.01602172     A.U. after   27 cycles
 SCF Done:  E(RB3LYP) =  -1752.20755821     A.U. after   25 cycles
 SCF Done:  E(RB3LYP) =  -1752.52979793     A.U. after   24 cycles
 SCF Done:  E(RB3LYP) =  -1752.69653076     A.U. after   25 cycles
 SCF Done:  E(RB3LYP) =  -1752.50864459     A.U. after   24 cycles
 SCF Done:  E(RB3LYP) =  -1752.79658746     A.U. after   27 cycles
 SCF Done:  E(RB3LYP) =  -1752.80804676     A.U. after   19 cycles
 SCF Done:  E(RB3LYP) =  -1752.82342994     A.U. after   17 cycles
 SCF Done:  E(RB3LYP) =  -1752.86060931     A.U. after   16 cycles
 SCF Done:  E(RB3LYP) =  -1752.92227652     A.U. after   18 cycles
 SCF Done:  E(RB3LYP) =  -1753.35944198     A.U. after   12 cycles
 SCF Done:  E(RB3LYP) =  -1753.35944432     A.U. after   11 cycles
 SCF Done:  E(RB3LYP) =  -1753.35944609     A.U. after   10 cycles
 SCF Done:  E(RB3LYP) =  -1753.35944741     A.U. after   11 cycles
 SCF Done:  E(RB3LYP) =  -1753.35944842     A.U. after   11 cycles
 SCF Done:  E(RB3LYP) =  -1753.35944904     A.U. after   11 cycles
 SCF Done:  E(RB3LYP) =  -1753.35944935     A.U. after   11 cycles
 SCF Done:  E(RB3LYP) =  -1753.35944948     A.U. after   11 cycles
 SCF Done:  E(RB3LYP) =  -1753.35944955     A.U. after   10 cycles
 Optimization completed.
    -- Stationary point found.
 Normal termination of Gaussian 09 at Sun Dec 29 11:32:26 2013.

 ----------------------------------------------------------------------
 #N Geom=AllCheck Guess=TCheck SCRF=Check Test GenChk RB3LYP/6-31++G(d,
 p) Freq
 ----------------------------------------------------------------------

 Geom opt of No.27 candidate from the CEPDB database with SMILE code of
  C1C=Cc2c1c1cnc3C=C(Cc3c1c1=C[SiH2]C=c21)c1nccc2nsnc12, HPC, 20131227,
  Shuo Dai, Gaussian09
 ----------------------------------------------------------------------
 Charge =  0 Multiplicity = 1

                         Standard orientation:
 ---------------------------------------------------------------------
 Center     Atomic      Atomic             Coordinates (Angstroms)
 Number     Number       Type             X           Y           Z
 ---------------------------------------------------------------------
      1          6           0       -5.445308    1.551193   -0.956926
      2          6           0       -5.578124    1.462528    0.548204
      3          6           0       -5.744686    0.002689    0.967812
      4          6           0       -4.598789   -0.378214    0.355248
      5          6           0       -4.276383    1.012662   -0.134105
      6          6           0       -2.869533    1.426649   -0.126717
      7          6           0       -2.486892    2.779417   -0.131956
      8          7           0       -1.229251    3.218299   -0.111190
      9          6           0       -0.292026    2.258106   -0.092010
     10          6           0        1.138839    2.488691   -0.032854
     11          6           0        1.794103    1.294903   -0.013652
     12          6           0        0.786640    0.159938   -0.081643
     13          6           0       -0.545856    0.866923   -0.108944
     14          6           0       -1.871923    0.400217   -0.120456
     15          6           0       -2.240630   -1.048229   -0.116416
     16          6           0       -1.392267   -2.092361   -0.318175
     17         14           0       -2.330082   -3.703561   -0.134568
     18          1           0       -2.364014   -4.529886   -1.371446
     19          1           0       -1.825708   -4.559976    0.973586
     20          6           0       -3.926178   -2.807576    0.222608
     21          6           0       -3.677183   -1.473619    0.167930
     22          6           0        3.244087    1.144249    0.048280
     23          7           0        3.984641    2.242690    0.135795
     24          6           0        5.343803    2.170122    0.200331
     25          6           0        6.083444    1.009826    0.185138
     26          6           0        5.350187   -0.200431    0.091222
     27          7           0        5.842384   -1.448249    0.055838
     28         16           0        4.547877   -2.452870   -0.060719
     29          7           0        3.328268   -1.351619   -0.070010
     30          6           0        3.903807   -0.145533    0.019858
     31          1           0       -5.303827    2.551440   -1.365169
     32          1           0       -6.006082    0.867261   -1.592670
     33          1           0       -5.708111    2.336438    1.177546
     34          1           0       -6.530375   -0.514752    1.507414
     35          1           0       -3.259258    3.546587   -0.140325
     36          1           0        1.600381    3.466911   -0.004870
     37          1           0        0.878438   -0.532124    0.763707
     38          1           0        0.954422   -0.444903   -0.980586
     39          1           0       -0.342379   -1.968004   -0.536080
     40          1           0       -4.926200   -3.186497    0.404356
     41          1           0        5.845177    3.132090    0.269782
     42          1           0        7.165582    1.010440    0.240527
 ---------------------------------------------------------------------

 SCF Done:  E(RB3LYP) =  -1753.35944955     A.U. after    2 cycles

 The electronic state is 1-A.
 Alpha  occ. eigenvalues --  -88.99596 -66.13746 -14.39645 -14.38968 -14.35135
 Alpha  occ. eigenvalues --  -14.34210 -10.26537 -10.26439 -10.26392 -10.24323
 Alpha  occ. eigenvalues --  -10.23150 -10.23096 -10.23049 -10.23015 -10.22550
 Alpha  occ. eigenvalues --  -10.22282 -10.22179 -10.21992 -10.21868 -10.21803
 Alpha  occ. eigenvalues --  -10.21610 -10.21583 -10.21437 -10.21266 -10.21096
 Alpha  occ. eigenvalues --  -10.20460 -10.19043 -10.18948  -8.04911  -6.01464
 Alpha  occ. eigenvalues --   -6.00882  -6.00675  -5.28561  -3.64438  -3.64394
 Alpha  occ. eigenvalues --   -3.64393  -1.04019  -0.96124  -0.95665  -0.93462
 Alpha  occ. eigenvalues --   -0.91245  -0.87053  -0.85650  -0.81678  -0.81406
 Alpha  occ. eigenvalues --   -0.79098  -0.76068  -0.74920  -0.72641  -0.72282
 Alpha  occ. eigenvalues --   -0.68804  -0.67555  -0.65482  -0.64344  -0.63036
 Alpha  occ. eigenvalues --   -0.61443  -0.59861  -0.58949  -0.56896  -0.55375
 Alpha  occ. eigenvalues --   -0.53663  -0.53478  -0.52923  -0.51938  -0.50682
 Alpha  occ. eigenvalues --   -0.49600  -0.48107  -0.47725  -0.47621  -0.46617
 Alpha  occ. eigenvalues --   -0.45918  -0.45835  -0.44874  -0.43548  -0.42461
 Alpha  occ. eigenvalues --   -0.41533  -0.40951  -0.40131  -0.40087  -0.40013
 Alpha  occ. eigenvalues --   -0.39013  -0.38657  -0.37918  -0.37250  -0.36027
 Alpha  occ. eigenvalues --   -0.35511  -0.35114  -0.34557  -0.34076  -0.33124
 Alpha  occ. eigenvalues --   -0.32801  -0.32443  -0.32223  -0.30863  -0.29831
 Alpha  occ. eigenvalues --   -0.29140  -0.27687  -0.27123  -0.26510  -0.24211
 Alpha  occ. eigenvalues --   -0.23005  -0.21156
 Alpha virt. eigenvalues --   -0.11700  -0.08875  -0.06386  -0.04236  -0.02074
 Alpha virt. eigenvalues --   -0.01855  -0.01742  -0.00848  -0.00529   0.00029
 Alpha virt. eigenvalues --    0.00149   0.00718   0.01116   0.01272   0.01491

 Mulliken atomic charges:
              1
     1  C   -0.598928
     2  C   -0.237105
     3  C   -0.069658
     4  C   -0.301782
     5  C   -0.156131
     6  C   -0.037988
     7  C    0.072852
     8  N   -0.164920
     9  C   -0.760031
    10  C   -0.434468
    11  C    0.726764
    12  C   -1.133987
    13  C    0.455906
    14  C    0.674957
    15  C    0.005564
    16  C    0.004636
    17  Si   0.907021
    18  H   -0.109285
    19  H   -0.095071
    20  C   -0.740627
    21  C    0.188000
    22  C   -0.192178
    23  N   -0.142796
    24  C    0.102242
    25  C   -0.465933
    26  C    0.237214
    27  N   -0.397741
    28  S    0.879977
    29  N   -0.493060
    30  C    0.311912
    31  H    0.163388
    32  H    0.188253
    33  H    0.183113
    34  H    0.124922
    35  H    0.164256
    36  H    0.197987
    37  H    0.217605
    38  H    0.201370
    39  H    0.082302
    40  H    0.111019
    41  H    0.158360
    42  H    0.172069
 Sum of Mulliken atomic charges =  -0.00000

 Dipole moment (field-independent basis, Debye):
    X=             -1.5310    Y=             -1.7450    Z=             -0.0251  Tot=              2.3216
 Quadrupole moment (field-independent basis, Debye-Ang):
   XX=           -156.1462   YY=           -179.1666   ZZ=           -177.5626
   XY=             -0.1365   XZ=             -1.1951   YZ=             -0.0906

  Exact polarizability: 571.862 -37.198 399.264  -1.395   3.879 175.014
 Approx polarizability: 855.425-114.733 727.716  -7.779  16.817 296.874

                     1                      2                      3
                     A                      A                      A
 Frequencies --    17.3811                26.7415                49.3128
 Red. masses --     8.8878                 5.8205                 9.2953
 Frc consts  --     0.0016                 0.0025                 0.0133
 IR Inten    --     0.0102                 0.3012                 0.1451

                     4                      5                      6
                     A                      A                      A
 Frequencies --    67.8826                70.3453                97.8534
 Red. masses --     4.4950                 5.2925                 4.3232
 Frc consts  --     0.0122                 0.0154                 0.0244
 IR Inten    --     0.6534                 0.3632                 0.5919

                     7                      8                      9
                     A                      A                      A
 Frequencies --   134.3016               145.1536               160.8287
 Red. masses --     6.1199                 6.9219                 3.9858
 Frc consts  --     0.0650                 0.0859                 0.0607
 IR Inten    --     0.0183                 0.3739                 1.5564

                    10                     11                     12
                     A                      A                      A
 Frequencies --   197.4410               199.5006               203.8023
 Red. masses --     4.0140                 4.3390                 5.6414
 Frc consts  --     0.0922                 0.1017                 0.1381
 IR Inten    --     0.4251                 0.1785                 0.1326

                    13                     14                     15
                     A                      A                      A
 Frequencies --   227.4586               248.1535               258.3311
 Red. masses --     3.8067                 5.5793                 5.2013
 Frc consts  --     0.1160                 0.2024                 0.2045
 IR Inten    --     1.2752                 0.1534                 1.9926

                    16                     17                     18
                     A                      A                      A
 Frequencies --   270.2201               308.6880               360.7250
 Red. masses --     5.4431                 3.6539                 7.6197
 Frc consts  --     0.2342                 0.2051                 0.5842
 IR Inten    --     2.4554                 5.5917                 6.6312

                    19                     20                     21
                     A                      A                      A
 Frequencies --   381.1165               384.0063               401.2876
 Red. masses --     5.2277                 4.7047                 4.9802
 Frc consts  --     0.4474                 0.4087                 0.4725
 IR Inten    --     6.1832                 0.4087                 8.4811

                    22                     23                     24
                     A                      A                      A
 Frequencies --   408.6177               439.9021               455.6223
 Red. masses --     5.5791                 2.5344                 5.1042
 Frc consts  --     0.5488                 0.2890                 0.6243
 IR Inten    --     0.3189                 2.5283                 2.0574

                    25                     26                     27
                     A                      A                      A
 Frequencies --   470.5991               493.1819               503.2381
 Red. masses --     3.0024                 5.2876                 4.6714
 Frc consts  --     0.3918                 0.7577                 0.6970
 IR Inten    --     0.3902                15.1909                 4.3982

                    28                     29                     30
                     A                      A                      A
 Frequencies --   523.7249               549.2229               563.4657
 Red. masses --     4.1872                 6.3632                 2.3847
 Frc consts  --     0.6767                 1.1309                 0.4461
 IR Inten    --     7.2304                 9.1641                25.9763

                    31                     32                     33
                     A                      A                      A
 Frequencies --   564.8680               569.9517               593.9232
 Red. masses --     3.2253                 4.1113                 2.6154
 Frc consts  --     0.6063                 0.7869                 0.5436
 IR Inten    --     1.8765                 5.4677                 1.3541

                    34                     35                     36
                     A                      A                      A
 Frequencies --   606.0951               627.8795               630.5873
 Red. masses --     6.3247                 1.9887                 2.8550
 Frc consts  --     1.3689                 0.4619                 0.6689
 IR Inten    --     5.9309                 5.5690                 8.5778

                    37                     38                     39
                     A                      A                      A
 Frequencies --   645.3268               653.7005               663.1660
 Red. masses --     5.9336                 2.1212                 5.4414
 Frc consts  --     1.4559                 0.5341                 1.4100
 IR Inten    --     3.6623                 4.2062                 4.6759

                    40                     41                     42
                     A                      A                      A
 Frequencies --   681.6596               724.0517               727.0361
 Red. masses --     7.4521                 1.9600                 3.4556
 Frc consts  --     2.0402                 0.6054                 1.0762
 IR Inten    --    20.6121                26.2700                 5.7985

                    43                     44                     45
                     A                      A                      A
 Frequencies --   732.8169               765.4236               774.3746
 Red. masses --     2.8518                 3.5336                 3.1833
 Frc consts  --     0.9023                 1.2197                 1.1247
 IR Inten    --    10.4954                46.2536                 7.2485

                    46                     47                     48
                     A                      A                      A
 Frequencies --   791.2569               794.2430               799.2220
 Red. masses --     1.5416                 4.1150                 4.7024
 Frc consts  --     0.5687                 1.5294                 1.7697
 IR Inten    --    29.0842                 6.9765                 0.0977

                    49                     50                     51
                     A                      A                      A
 Frequencies --   815.0673               819.7525               827.0538
 Red. masses --     3.8175                 3.1834                 1.5635
 Frc consts  --     1.4942                 1.2604                 0.6301
 IR Inten    --    43.5316                34.0299                32.6225

                    52                     53                     54
                     A                      A                      A
 Frequencies --   829.1922               832.7822               833.9731
 Red. masses --     3.6326                 5.7539                 5.0352
 Frc consts  --     1.4715                 2.3511                 2.0633
 IR Inten    --    12.5159                 8.7962                 6.9510

                    55                     56                     57
                     A                      A                      A
 Frequencies --   848.2730               861.7844               869.6656
 Red. masses --     4.9614                 1.6092                 2.7604
 Frc consts  --     2.1034                 0.7041                 1.2301
 IR Inten    --    50.3177                29.1572                10.6951

                    58                     59                     60
                     A                      A                      A
 Frequencies --   882.8135               900.9053               922.3281
 Red. masses --     3.3133                 7.7707                 2.0808
 Frc consts  --     1.5214                 3.7159                 1.0429
 IR Inten    --    23.1138                21.5072                10.5922

                    61                     62                     63
                     A                      A                      A
 Frequencies --   929.5502               939.8534               948.4931
 Red. masses --     3.0318                 1.4661                 1.5740
 Frc consts  --     1.5435                 0.7630                 0.8343
 IR Inten    --    34.4388                 2.6110                 8.8240

                    64                     65                     66
                     A                      A                      A
 Frequencies --   953.9353               962.5364               975.1677
 Red. masses --     1.6402                 1.1285                 3.7659
 Frc consts  --     0.8794                 0.6160                 2.1100
 IR Inten    --    19.9985               157.5158                 4.8879

                    67                     68                     69
                     A                      A                      A
 Frequencies --   983.0402               987.3362               994.2149
 Red. masses --     1.7749                 1.3616                 1.9686
 Frc consts  --     1.0106                 0.7820                 1.1465
 IR Inten    --    16.2851                 0.2131                 5.4934

                    70                     71                     72
                     A                      A                      A
 Frequencies --  1044.0239              1076.7370              1079.3943
 Red. masses --     1.9654                 2.2293                 1.9659
 Frc consts  --     1.2622                 1.5228                 1.3495
 IR Inten    --    47.3842               105.4209                11.5493

                    73                     74                     75
                     A                      A                      A
 Frequencies --  1084.8965              1116.7365              1129.8255
 Red. masses --     1.4624                 2.8070                 2.4481
 Frc consts  --     1.0141                 2.0625                 1.8412
 IR Inten    --     5.4635                23.5048                25.4792

                    76                     77                     78
                     A                      A                      A
 Frequencies --  1165.6470              1170.3993              1199.6402
 Red. masses --     1.5942                 1.2765                 1.6755
 Frc consts  --     1.2762                 1.0302                 1.4207
 IR Inten    --     1.8414                 2.4232                 6.7355

                    79                     80                     81
                     A                      A                      A
 Frequencies --  1208.7784              1222.0210              1231.0016
 Red. masses --     1.7814                 2.0235                 2.8268
 Frc consts  --     1.5336                 1.7804                 2.5239
 IR Inten    --     8.9381                28.4917                14.6621

                    82                     83                     84
                     A                      A                      A
 Frequencies --  1247.7202              1262.1745              1263.9407
 Red. masses --     2.0246                 2.9726                 2.9862
 Frc consts  --     1.8571                 2.7901                 2.8108
 IR Inten    --    33.8209                10.5515                39.3870

                    85                     86                     87
                     A                      A                      A
 Frequencies --  1283.7302              1299.4340              1319.2368
 Red. masses --     2.7848                 3.4874                 3.7051
 Frc consts  --     2.7039                 3.4694                 3.7992
 IR Inten    --    17.9165               100.1510                 1.7487

                    88                     89                     90
                     A                      A                      A
 Frequencies --  1336.4500              1347.8159              1362.1989
 Red. masses --     4.4198                 3.4322                 3.1037
 Frc consts  --     4.6511                 3.6735                 3.3932
 IR Inten    --     9.4078                16.3573                49.5646

                    91                     92                     93
                     A                      A                      A
 Frequencies --  1384.2978              1388.7883              1426.6514
 Red. masses --     4.0062                 5.6200                 2.2136
 Frc consts  --     4.5232                 6.3865                 2.6546
 IR Inten    --     7.5591                15.1944                 3.1335

                    94                     95                     96
                     A                      A                      A
 Frequencies --  1434.8493              1438.8538              1473.8692
 Red. masses --     1.6549                 3.2690                 1.9458
 Frc consts  --     2.0074                 3.9875                 2.4904
 IR Inten    --     6.5157                 2.1948                25.7408

                    97                     98                     99
                     A                      A                      A
 Frequencies --  1489.8376              1495.0029              1543.4500
 Red. masses --     2.1566                 5.6426                 8.5587
 Frc consts  --     2.8203                 7.4305                12.0127
 IR Inten    --   130.9731               224.0164                24.5768

                   100                    101                    102
                     A                      A                      A
 Frequencies --  1545.8858              1576.0761              1586.2227
 Red. masses --     4.7208                 9.3381                 7.2496
 Frc consts  --     6.6469                13.6666                10.7471
 IR Inten    --    99.0657                83.4941               106.4696

                   103                    104                    105
                     A                      A                      A
 Frequencies --  1606.6307              1616.5509              1628.7400
 Red. masses --     7.1744                 8.8267                 7.1070
 Frc consts  --    10.9111                13.5903                11.1082
 IR Inten    --    56.7766                39.5081                12.4391

                   106                    107                    108
                     A                      A                      A
 Frequencies --  1670.7868              2215.7236              2220.7250
 Red. masses --     9.1302                 1.0507                 1.0304
 Frc consts  --    15.0166                 3.0393                 2.9940
 IR Inten    --    17.9543               120.3995               201.0955

                   109                    110                    111
                     A                      A                      A
 Frequencies --  3054.2784              3086.0077              3100.1926
 Red. masses --     1.0616                 1.0998                 1.0534
 Frc consts  --     5.8348                 6.1708                 5.9650
 IR Inten    --     1.5618                 1.3479                39.3627

                   112                    113                    114
                     A                      A                      A
 Frequencies --  3159.8253              3183.7773              3192.2351
 Red. masses --     1.0898                 1.0898                 1.1151
 Frc consts  --     6.4111                 6.5088                 6.6951
 IR Inten    --    35.3598                35.4364                 7.5115

                   115                    116                    117
                     A                      A                      A
 Frequencies --  3205.2861              3211.3584              3219.4824
 Red. masses --     1.0930                 1.0917                 1.0992
 Frc consts  --     6.6159                 6.6334                 6.7130
 IR Inten    --    14.7186                 2.3666                18.8014

                   118                    119                    120
                     A                      A                      A
 Frequencies --  3231.1868              3258.9204              3275.3199
 Red. masses --     1.0948                 1.0956                 1.0896
 Frc consts  --     6.7344                 6.8555                 6.8872
 IR Inten    --     4.0423                 0.8954                 0.0773

 - Thermochemistry -
 -------------------
 Temperature   298.150 Kelvin.  Pressure   1.00000 Atm.
 Atom     1 has atomic number  6 and mass  12.00000

 Molecular mass:   394.07085 amu.
 Principal axes and moments of inertia in atomic units:
                           1         2         3
     Eigenvalues --  5791.11186********************
           X            0.99998   0.00604   0.00060
           Y           -0.00604   0.99998  -0.00047
           Z           -0.00060   0.00046   1.00000
 This molecule is an asymmetric top.
 Rotational symmetry number  1.
 Warning -- assumption of classical behavior for rotation
           may cause significant error
 Rotational temperatures (Kelvin)      0.01496     0.00421     0.00333
 Rotational constants (GHZ):           0.31164     0.08774     0.06933
 Zero-point vibrational energy     791054.7 (Joules/Mol)
                                  189.06661 (Kcal/Mol)
 Warning -- explicit consideration of  34 degrees of freedom as
           vibrations may cause significant error
 Vibrational temperatures:     25.01    38.48    70.95    97.67   101.21
          (Kelvin)            140.79   193.23   208.84   231.40   284.07
                              287.04   293.23   327.26   357.04   371.68
                              388.79   444.13   519.00   548.34   552.50
                              577.36   587.91   632.92   655.54   677.09
                              709.58   724.05   753.52   790.21   810.70
                              812.72   820.03   854.52   872.03   903.38
                              907.27   928.48   940.53   954.15   980.75
                             1041.75  1046.04  1054.36  1101.27  1114.15
                             1138.44  1142.74  1149.90  1172.70  1179.44
                             1189.94  1193.02  1198.19  1199.90  1220.47
                             1239.91  1251.25  1270.17  1296.20  1327.02
                             1337.41  1352.24  1364.67  1372.50  1384.87
                             1403.05  1414.37  1420.55  1430.45  1502.12
                             1549.18  1553.01  1560.92  1606.73  1625.56
                             1677.10  1683.94  1726.01  1739.16  1758.21
                             1771.13  1795.19  1815.99  1818.53  1847.00
                             1869.59  1898.09  1922.85  1939.20  1959.90
                             1991.69  1998.15  2052.63  2064.43  2070.19
                             2120.57  2143.54  2150.97  2220.68  2224.18
                             2267.62  2282.22  2311.58  2325.85  2343.39
                             2403.89  3187.93  3195.12  4394.42  4440.07
                             4460.48  4546.28  4580.74  4592.91  4611.69
                             4620.42  4632.11  4648.95  4688.85  4712.45

 Zero-point correction=                           0.301297 (Hartree/Particle)
 Thermal correction to Energy=                    0.322286
 Thermal correction to Enthalpy=                  0.323230
 Thermal correction to Gibbs Free Energy=         0.250420
 Sum of electronic and zero-point Energies=          -1753.058153
 Sum of electronic and thermal Energies=             -1753.037163
 Sum of electronic and thermal Enthalpies=           -1753.036219
 Sum of electronic and thermal Free Energies=        -1753.109030

                     E (Thermal)             CV                S
                      KCal/Mol        Cal/Mol-Kelvin    Cal/Mol-Kelvin
 Total                  202.238             86.846            153.243
 Electronic               0.000              0.000              0.000
 Translational            0.889              2.981             43.806
 Rotational               0.889              2.981             36.382
 Vibrational            200.460             80.885             73.055
 Vibration     1          0.593              1.986              6.913
 Vibration     2          0.593              1.984              6.058
 Vibration     3          0.595              1.978              4.845
 Vibration     4          0.598              1.970              4.214
 Vibration     5          0.598              1.968              4.144
 Vibration     6          0.603              1.951              3.497
 Vibration     7          0.613              1.919              2.884
 Vibration     8          0.617              1.908              2.735
 Vibration     9          0.622              1.890              2.540
 Vibration    10          0.637              1.843              2.157
 Vibration    11          0.638              1.841              2.138
 Vibration    12          0.639              1.834              2.099
 Vibration    13          0.651              1.799              1.899
 Vibration    14          0.662              1.766              1.744
 Vibration    15          0.667              1.749              1.673
 Vibration    16          0.674              1.728              1.595
 Vibration    17          0.698              1.657              1.369
 Vibration    18          0.735              1.553              1.119
 Vibration    19          0.751              1.510              1.035
 Vibration    20          0.753              1.504              1.023
 Vibration    21          0.767              1.467              0.958
 Vibration    22          0.773              1.452              0.932
 Vibration    23          0.800              1.383              0.827
 Vibration    24          0.814              1.348              0.779
 Vibration    25          0.828              1.315              0.736
 Vibration    26          0.849              1.265              0.675
 Vibration    27          0.859              1.243              0.650
 Vibration    28          0.879              1.197              0.601
 Vibration    29          0.904              1.141              0.546
 Vibration    30          0.919              1.110              0.517
 Vibration    31          0.921              1.107              0.514
 Vibration    32          0.926              1.096              0.504
 Vibration    33          0.952              1.045              0.460
 Vibration    34          0.965              1.019              0.439

 Normal termination of Gaussian 09 at Sun Dec 29 13:19:42 2013.
