 Gaussian 09, Revision C.01,
 Gaussian 09:  EM64L-G09RevC.01 23-Sep-2011

 --------------------------------------------
 #B3LYP/6-31++G(d,p) opt scf=direct freq test
 --------------------------------------------

 Geom opt of No.88 candidate from the CEPDB database with SMILE code of
  c1cc2csc(-c3cc4[nH]c5c(c4cn3)c3nsnc3c3ccc4nsnc4c53)c2o1, HPC, 2013122
 7, Shuo Dai, Gaussian09
 ----------------------------------------------------------------------
 Charge =  0 Multiplicity = 1

 SCF Done:  E(RB3LYP) =  -2403.34012556     A.U. after   18 cycles
 SCF Done:  E(RB3LYP) =  -2403.37570370     A.U. after   17 cycles
 SCF Done:  E(RB3LYP) =  -2403.38641853     A.U. after   17 cycles
 SCF Done:  E(RB3LYP) =  -2403.38701269     A.U. after   13 cycles
 SCF Done:  E(RB3LYP) =  -2403.38708174     A.U. after   12 cycles
 SCF Done:  E(RB3LYP) =  -2403.38712059     A.U. after   11 cycles
 SCF Done:  E(RB3LYP) =  -2403.38713046     A.U. after   10 cycles
 SCF Done:  E(RB3LYP) =  -2403.38713097     A.U. after   10 cycles
 SCF Done:  E(RB3LYP) =  -2403.38713120     A.U. after    9 cycles
 Optimization completed.
    -- Stationary point found.
 Normal termination of Gaussian 09 at Mon Dec 30 00:12:11 2013.

 ----------------------------------------------------------------------
 #N Geom=AllCheck Guess=TCheck SCRF=Check Test GenChk RB3LYP/6-31++G(d,
 p) Freq
 ----------------------------------------------------------------------

 Geom opt of No.88 candidate from the CEPDB database with SMILE code of
  c1cc2csc(-c3cc4[nH]c5c(c4cn3)c3nsnc3c3ccc4nsnc4c53)c2o1, HPC, 2013122
 7, Shuo Dai, Gaussian09
 ----------------------------------------------------------------------
 Charge =  0 Multiplicity = 1

                         Standard orientation:
 ---------------------------------------------------------------------
 Center     Atomic      Atomic             Coordinates (Angstroms)
 Number     Number       Type             X           Y           Z
 ---------------------------------------------------------------------
      1          6           0        7.143902    1.533766    0.002006
      2          6           0        7.765191    0.328279    0.001185
      3          6           0        6.701435   -0.653124    0.000117
      4          6           0        6.465300   -2.007184   -0.001008
      5         16           0        4.757348   -2.323728   -0.001668
      6          6           0        4.313562   -0.618012   -0.000378
      7          6           0        2.925830   -0.162884   -0.000295
      8          6           0        1.849239   -1.064965   -0.000054
      9          6           0        0.571917   -0.512353   -0.000080
     10          7           0       -0.670560   -1.112695    0.000090
     11          1           0       -0.881038   -2.102556    0.000289
     12          6           0       -1.645801   -0.135369    0.000023
     13          6           0       -1.030528    1.124472   -0.000180
     14          6           0        0.386374    0.897279   -0.000244
     15          6           0        1.537748    1.701499   -0.000384
     16          7           0        2.762394    1.189103   -0.000433
     17          6           0       -1.872274    2.275751   -0.000270
     18          7           0       -1.491984    3.553836   -0.000483
     19         16           0       -2.876743    4.456383   -0.000409
     20          7           0       -3.991770    3.243354   -0.000372
     21          6           0       -3.316212    2.094417   -0.000184
     22          6           0       -3.921234    0.779833    0.000029
     23          6           0       -5.349050    0.620107    0.000110
     24          6           0       -5.950256   -0.608749    0.000316
     25          6           0       -5.117410   -1.770492    0.000335
     26          7           0       -5.531075   -3.041437    0.000586
     27         16           0       -4.184639   -3.986421    0.000499
     28          7           0       -3.026366   -2.806029    0.000313
     29          6           0       -3.674304   -1.636496    0.000322
     30          6           0       -3.061656   -0.336885    0.000161
     31          6           0        5.488438    0.104402    0.000417
     32          8           0        5.765503    1.442397    0.001571
     33          1           0        7.526543    2.543567    0.002914
     34          1           0        8.832434    0.162095    0.001320
     35          1           0        7.161959   -2.833329   -0.001518
     36          1           0        2.003662   -2.138976    0.000191
     37          1           0        1.458660    2.785759   -0.000466
     38          1           0       -5.949126    1.523705    0.000003
     39          1           0       -7.028314   -0.721854    0.000378
 ---------------------------------------------------------------------

 SCF Done:  E(RB3LYP) =  -2403.38713120     A.U. after    2 cycles

 The electronic state is 1-A.
 Alpha  occ. eigenvalues --  -88.99672 -88.98423 -88.92495 -19.21949 -14.40603
 Alpha  occ. eigenvalues --  -14.39951 -14.39528 -14.38795 -14.38208 -14.33431
 Alpha  occ. eigenvalues --  -10.27256 -10.26790 -10.26308 -10.26272 -10.26234
 Alpha  occ. eigenvalues --  -10.25785 -10.25663 -10.25578 -10.25020 -10.24705
 Alpha  occ. eigenvalues --  -10.24277 -10.23346 -10.23295 -10.22973 -10.22941
 Alpha  occ. eigenvalues --  -10.22707 -10.22301 -10.21254 -10.21189 -10.21178
 Alpha  occ. eigenvalues --  -10.20485  -8.04997  -8.03752  -7.98357  -6.01571
 Alpha  occ. eigenvalues --   -6.00988  -6.00715  -6.00330  -5.99745  -5.99463
 Alpha  occ. eigenvalues --   -5.94802  -5.94415  -5.94055  -1.11302  -1.04272
 Alpha  occ. eigenvalues --   -1.03167  -1.01314  -0.94783  -0.91768  -0.90954
 Alpha  occ. eigenvalues --   -0.89323  -0.89120  -0.84476  -0.81659  -0.81267
 Alpha  occ. eigenvalues --   -0.79844  -0.78729  -0.76826  -0.75988  -0.74516
 Alpha  occ. eigenvalues --   -0.71508  -0.68569  -0.66798  -0.66379  -0.65120
 Alpha  occ. eigenvalues --   -0.63679  -0.62620  -0.61451  -0.59928  -0.58536
 Alpha  occ. eigenvalues --   -0.57595  -0.56914  -0.54595  -0.53513  -0.52678
 Alpha  occ. eigenvalues --   -0.51944  -0.50492  -0.49276  -0.49120  -0.48252
 Alpha  occ. eigenvalues --   -0.47820  -0.46668  -0.46327  -0.46280  -0.45463
 Alpha  occ. eigenvalues --   -0.45167  -0.44899  -0.44296  -0.42878  -0.41936
 Alpha  occ. eigenvalues --   -0.40927  -0.40741  -0.40516  -0.40325  -0.39344
 Alpha  occ. eigenvalues --   -0.38607  -0.38531  -0.36963  -0.36739  -0.35744
 Alpha  occ. eigenvalues --   -0.35332  -0.34794  -0.34676  -0.33549  -0.32840
 Alpha  occ. eigenvalues --   -0.32519  -0.31525  -0.31061  -0.29431  -0.28400
 Alpha  occ. eigenvalues --   -0.27437  -0.26222  -0.25252  -0.24649  -0.23639
 Alpha  occ. eigenvalues --   -0.20304
 Alpha virt. eigenvalues --   -0.11923  -0.08170  -0.06539  -0.04470  -0.02439
 Alpha virt. eigenvalues --   -0.02177  -0.01803  -0.01276  -0.01017  -0.00518
 Alpha virt. eigenvalues --   -0.00015   0.00086   0.00177   0.00949   0.01416

 Mulliken atomic charges:
              1
     1  C    0.194048
     2  C    0.051748
     3  C    0.117286
     4  C   -0.266264
     5  S    0.032052
     6  C   -0.224906
     7  C    0.126413
     8  C   -0.492293
     9  C   -0.312082
    10  N   -0.252894
    11  H    0.373810
    12  C   -0.223702
    13  C    0.645563
    14  C    0.229656
    15  C   -0.068580
    16  N   -0.136402
    17  C    0.203251
    18  N   -0.462176
    19  S    0.875176
    20  N   -0.420885
    21  C    0.022349
    22  C   -0.005009
    23  C   -0.119398
    24  C   -0.403601
    25  C   -0.147685
    26  N   -0.356670
    27  S    0.909668
    28  N   -0.544478
    29  C    0.248922
    30  C   -0.212581
    31  C   -0.241954
    32  O   -0.228543
    33  H    0.149405
    34  H    0.133534
    35  H    0.181356
    36  H    0.089180
    37  H    0.201450
    38  H    0.168185
    39  H    0.167050
 Sum of Mulliken atomic charges =  -0.00000

 Dipole moment (field-independent basis, Debye):
    X=             -0.0496    Y=             -2.3174    Z=              0.0015  Tot=              2.3179
 Quadrupole moment (field-independent basis, Debye-Ang):
   XX=           -173.6920   YY=           -186.8409   ZZ=           -200.7863
   XY=             -5.2564   XZ=              0.0075   YZ=              0.0067

  Exact polarizability: 669.732  12.553 463.771  -0.028   0.022 157.490
 Approx polarizability: 993.463  26.871 906.106  -0.014   0.046 263.507

                     1                      2                      3
                     A                      A                      A
 Frequencies --    12.7465                28.7629                46.9201
 Red. masses --     9.3903                 7.6423                 9.7709
 Frc consts  --     0.0009                 0.0037                 0.0127
 IR Inten    --     0.2004                 0.3402                 0.4041

                     4                      5                      6
                     A                      A                      A
 Frequencies --    59.6121                67.7549                99.6949
 Red. masses --    10.5580                 7.7139                 6.3337
 Frc consts  --     0.0221                 0.0209                 0.0371
 IR Inten    --     0.0721                 1.1076                 0.0130

                     7                      8                      9
                     A                      A                      A
 Frequencies --   100.0400               134.6860               142.9423
 Red. masses --    10.3905                 8.8850                15.1436
 Frc consts  --     0.0613                 0.0950                 0.1823
 IR Inten    --     0.3023                 1.0173                 0.2689

                    10                     11                     12
                     A                      A                      A
 Frequencies --   164.1985               202.2741               204.1110
 Red. masses --     9.1841                10.2449                12.5123
 Frc consts  --     0.1459                 0.2470                 0.3071
 IR Inten    --     0.5592                 0.4149                 0.0010

                    13                     14                     15
                     A                      A                      A
 Frequencies --   225.5281               231.8031               265.5389
 Red. masses --     6.5515                 5.9566                12.4425
 Frc consts  --     0.1963                 0.1886                 0.5169
 IR Inten    --     2.9358                 5.7748                 0.4928

                    16                     17                     18
                     A                      A                      A
 Frequencies --   267.9293               300.5149               307.4279
 Red. masses --     6.1370                11.0963                 9.1416
 Frc consts  --     0.2596                 0.5904                 0.5091
 IR Inten    --     0.4483                 1.8230                 0.0251

                    19                     20                     21
                     A                      A                      A
 Frequencies --   336.6331               372.7698               390.0660
 Red. masses --     5.9984                 8.6725                 7.9430
 Frc consts  --     0.4005                 0.7100                 0.7121
 IR Inten    --     0.0228                 4.3160                 2.4362

                    22                     23                     24
                     A                      A                      A
 Frequencies --   400.2649               406.7390               430.6274
 Red. masses --     8.7312                 7.9454                 9.6456
 Frc consts  --     0.8242                 0.7745                 1.0539
 IR Inten    --     0.5411                 5.1553                 0.2293

                    25                     26                     27
                     A                      A                      A
 Frequencies --   433.6646               465.5561               488.1324
 Red. masses --     3.2997                 7.7498                 6.0450
 Frc consts  --     0.3656                 0.9897                 0.8486
 IR Inten    --     4.2889                16.6421                 0.4954

                    28                     29                     30
                     A                      A                      A
 Frequencies --   493.7342               499.1824               522.1444
 Red. masses --     6.7758                 6.3822                10.6738
 Frc consts  --     0.9732                 0.9370                 1.7145
 IR Inten    --     3.4113                15.6826                 3.1574

                    31                     32                     33
                     A                      A                      A
 Frequencies --   533.0831               543.9780               570.8031
 Red. masses --    10.1786                 9.1435                 2.1107
 Frc consts  --     1.7042                 1.5941                 0.4052
 IR Inten    --     4.3327                 2.2603                24.4306

                    34                     35                     36
                     A                      A                      A
 Frequencies --   586.2449               600.9668               601.3222
 Red. masses --     3.5708                 1.8010                 8.2923
 Frc consts  --     0.7231                 0.3832                 1.7666
 IR Inten    --     0.2020                53.2572                 0.2697

                    37                     38                     39
                     A                      A                      A
 Frequencies --   632.1151               652.0565               673.4199
 Red. masses --     9.7788                 4.9564                 7.8238
 Frc consts  --     2.3021                 1.2416                 2.0904
 IR Inten    --    12.3121                10.3016                 0.6723

                    40                     41                     42
                     A                      A                      A
 Frequencies --   687.2077               692.4122               712.1114
 Red. masses --     2.4331                 8.9439                 1.9526
 Frc consts  --     0.6770                 2.5264                 0.5834
 IR Inten    --     2.3633                 8.6507                16.0283

                    43                     44                     45
                     A                      A                      A
 Frequencies --   725.0769               726.8520               732.1068
 Red. masses --     6.9673                10.0754                 2.9808
 Frc consts  --     2.1581                 3.1362                 0.9413
 IR Inten    --     0.0016                 0.2697                29.7495

                    46                     47                     48
                     A                      A                      A
 Frequencies --   737.8653               746.6627               767.4644
 Red. masses --     7.7843                 6.3021                10.7901
 Frc consts  --     2.4970                 2.0701                 3.7445
 IR Inten    --    26.4397                 0.0168                 4.1693

                    49                     50                     51
                     A                      A                      A
 Frequencies --   778.1310               781.1586               789.6716
 Red. masses --     1.8761                 4.4315                 9.1715
 Frc consts  --     0.6693                 1.5932                 3.3697
 IR Inten    --    46.6484                 0.1965                 0.0479

                    52                     53                     54
                     A                      A                      A
 Frequencies --   814.8405               822.2094               823.6112
 Red. masses --    11.5407                11.7737                10.5909
 Frc consts  --     4.5147                 4.6895                 4.2328
 IR Inten    --    43.2134                22.7256                26.0029

                    55                     56                     57
                     A                      A                      A
 Frequencies --   833.5808               835.5535               836.1406
 Red. masses --     1.6318                 5.3909                10.5664
 Frc consts  --     0.6681                 2.2175                 4.3525
 IR Inten    --    29.7417                31.5892                 2.9518

                    58                     59                     60
                     A                      A                      A
 Frequencies --   847.2745               857.2284               872.7592
 Red. masses --     8.5753                 1.6970                 7.2030
 Frc consts  --     3.6270                 0.7347                 3.2326
 IR Inten    --    50.6013                23.5845                24.1110

                    61                     62                     63
                     A                      A                      A
 Frequencies --   878.6800               904.0311               917.4588
 Red. masses --     1.3479                 5.3166                 9.4732
 Frc consts  --     0.6131                 2.5601                 4.6981
 IR Inten    --     0.0698                16.8548                19.1299

                    64                     65                     66
                     A                      A                      A
 Frequencies --   955.1571               958.4760               981.0219
 Red. masses --     8.0479                 1.3905                 8.8182
 Frc consts  --     4.3260                 0.7526                 5.0002
 IR Inten    --    20.3064                 5.0375                 2.8274

                    67                     68                     69
                     A                      A                      A
 Frequencies --   996.7158               998.5070              1052.9262
 Red. masses --     1.2955                 3.4228                 2.4148
 Frc consts  --     0.7583                 2.0107                 1.5774
 IR Inten    --     0.1136                13.7197                90.5538

                    70                     71                     72
                     A                      A                      A
 Frequencies --  1064.5256              1112.4892              1116.3791
 Red. masses --     3.7133                 3.2574                 4.7151
 Frc consts  --     2.4792                 2.3753                 3.4623
 IR Inten    --     0.0304                57.9443                 9.8599

                    73                     74                     75
                     A                      A                      A
 Frequencies --  1155.3343              1167.2692              1190.4065
 Red. masses --     1.5998                 1.4762                 1.7143
 Frc consts  --     1.2581                 1.1851                 1.4313
 IR Inten    --    91.7198                 0.7520                60.0778

                    76                     77                     78
                     A                      A                      A
 Frequencies --  1216.0025              1228.8599              1268.4011
 Red. masses --     3.2891                 2.0345                 3.0957
 Frc consts  --     2.8655                 1.8101                 2.9344
 IR Inten    --    38.1969                30.1700                17.7613

                    79                     80                     81
                     A                      A                      A
 Frequencies --  1292.0137              1308.9973              1315.7489
 Red. masses --     2.7810                 5.5006                 2.1787
 Frc consts  --     2.7352                 5.5531                 2.2222
 IR Inten    --    62.9703                20.9221                61.0981

                    82                     83                     84
                     A                      A                      A
 Frequencies --  1335.7463              1353.9419              1354.7508
 Red. masses --     2.1060                 7.1312                 3.0308
 Frc consts  --     2.2139                 7.7021                 3.2773
 IR Inten    --    46.1396                15.9322                40.0832

                    85                     86                     87
                     A                      A                      A
 Frequencies --  1356.9479              1378.6562              1393.5675
 Red. masses --     7.4202                 5.9793                 3.7738
 Frc consts  --     8.0499                 6.6959                 4.3180
 IR Inten    --     5.7390                18.2892                23.2105

                    88                     89                     90
                     A                      A                      A
 Frequencies --  1398.7109              1408.9214              1457.3961
 Red. masses --     8.1519                 4.1363                 6.8293
 Frc consts  --     9.3965                 4.8377                 8.5463
 IR Inten    --    27.0334                49.9370                49.6181

                    91                     92                     93
                     A                      A                      A
 Frequencies --  1479.4029              1485.8769              1492.3481
 Red. masses --     4.7944                 6.6972                 6.6564
 Frc consts  --     6.1824                 8.7119                 8.7343
 IR Inten    --     0.5491                 4.3548                30.4213

                    94                     95                     96
                     A                      A                      A
 Frequencies --  1509.7719              1546.6154              1554.3385
 Red. masses --     4.3558                 6.7061                 7.5781
 Frc consts  --     5.8498                 9.4511                10.7871
 IR Inten    --    19.6384                98.2270                96.6228

                    97                     98                     99
                     A                      A                      A
 Frequencies --  1579.3209              1580.0864              1592.1513
 Red. masses --     7.4771                 5.4809                 8.8921
 Frc consts  --    10.9881                 8.0623                13.2807
 IR Inten    --     4.1481                43.5336                13.5874

                   100                    101                    102
                     A                      A                      A
 Frequencies --  1602.4764              1634.9102              1644.9367
 Red. masses --     7.0480                 7.5315                 9.0939
 Frc consts  --    10.6636                11.8610                14.4978
 IR Inten    --    48.0784               206.6388               188.4900

                   103                    104                    105
                     A                      A                      A
 Frequencies --  1661.4992              3187.1991              3201.5884
 Red. masses --     7.5566                 1.0916                 1.0918
 Frc consts  --    12.2906                 6.5330                 6.5939
 IR Inten    --   106.4165                 5.8999                 7.3535

                   106                    107                    108
                     A                      A                      A
 Frequencies --  3213.2267              3229.2192              3267.0983
 Red. masses --     1.0883                 1.0962                 1.0905
 Frc consts  --     6.6202                 6.7351                 6.8583
 IR Inten    --     2.8349                 1.3658                 1.7657

                   109                    110                    111
                     A                      A                      A
 Frequencies --  3268.4953              3290.7792              3615.7594
 Red. masses --     1.0941                 1.1054                 1.0815
 Frc consts  --     6.8865                 7.0527                 8.3304
 IR Inten    --     4.4128                 3.0187               132.8171

 - Thermochemistry -
 -------------------
 Temperature   298.150 Kelvin.  Pressure   1.00000 Atm.
 Atom     1 has atomic number  6 and mass  12.00000

 Molecular mass:   455.99217 amu.
 Principal axes and moments of inertia in atomic units:
                           1         2         3
     Eigenvalues --  8396.49529********************
           X            1.00000  -0.00039   0.00000
           Y            0.00039   1.00000   0.00000
           Z           -0.00000  -0.00000   1.00000
 This molecule is an asymmetric top.
 Rotational symmetry number  1.
 Warning -- assumption of classical behavior for rotation
           may cause significant error
 Rotational temperatures (Kelvin)      0.01032     0.00296     0.00230
 Rotational constants (GHZ):           0.21494     0.06176     0.04797
 Zero-point vibrational energy     670333.7 (Joules/Mol)
                                  160.21361 (Kcal/Mol)
 Warning -- explicit consideration of  36 degrees of freedom as
           vibrations may cause significant error
 Vibrational temperatures:     18.34    41.38    67.51    85.77    97.48
          (Kelvin)            143.44   143.94   193.78   205.66   236.24
                              291.03   293.67   324.48   333.51   382.05
                              385.49   432.37   442.32   484.34   536.33
                              561.22   575.89   585.21   619.58   623.95
                              669.83   702.31   710.37   718.21   751.25
                              766.99   782.66   821.26   843.47   864.66
                              865.17   909.47   938.16   968.90   988.74
                              996.23  1024.57  1043.22  1045.78  1053.34
                             1061.62  1074.28  1104.21  1119.56  1123.91
                             1136.16  1172.37  1182.97  1184.99  1199.34
                             1202.17  1203.02  1219.04  1233.36  1255.70
                             1264.22  1300.70  1320.02  1374.26  1379.03
                             1411.47  1434.05  1436.63  1514.92  1531.61
                             1600.62  1606.22  1662.27  1679.44  1712.73
                             1749.55  1768.05  1824.94  1858.92  1883.35
                             1893.07  1921.84  1948.02  1949.18  1952.34
                             1983.58  2005.03  2012.43  2027.12  2096.87
                             2128.53  2137.84  2147.15  2172.22  2225.23
                             2236.34  2272.29  2273.39  2290.75  2305.60
                             2352.27  2366.69  2390.52  4585.66  4606.37
                             4623.11  4646.12  4700.62  4702.63  4734.69
                             5202.26

 Zero-point correction=                           0.255317 (Hartree/Particle)
 Thermal correction to Energy=                    0.277042
 Thermal correction to Enthalpy=                  0.277986
 Thermal correction to Gibbs Free Energy=         0.202516
 Sum of electronic and zero-point Energies=          -2403.131815
 Sum of electronic and thermal Energies=             -2403.110090
 Sum of electronic and thermal Enthalpies=           -2403.109145
 Sum of electronic and thermal Free Energies=        -2403.184616

                     E (Thermal)             CV                S
                      KCal/Mol        Cal/Mol-Kelvin    Cal/Mol-Kelvin
 Total                  173.846             88.051            158.840
 Electronic               0.000              0.000              0.000
 Translational            0.889              2.981             44.241
 Rotational               0.889              2.981             37.465
 Vibrational            172.069             82.089             77.134
 Vibration     1          0.593              1.987              7.529
 Vibration     2          0.593              1.984              5.913
 Vibration     3          0.595              1.979              4.943
 Vibration     4          0.597              1.974              4.470
 Vibration     5          0.598              1.970              4.218
 Vibration     6          0.604              1.949              3.460
 Vibration     7          0.604              1.949              3.454
 Vibration     8          0.613              1.919              2.878
 Vibration     9          0.616              1.910              2.764
 Vibration    10          0.623              1.886              2.501
 Vibration    11          0.639              1.837              2.112
 Vibration    12          0.640              1.834              2.096
 Vibration    13          0.650              1.802              1.914
 Vibration    14          0.653              1.792              1.865
 Vibration    15          0.671              1.736              1.625
 Vibration    16          0.673              1.732              1.610
 Vibration    17          0.693              1.673              1.414
 Vibration    18          0.697              1.660              1.376
 Vibration    19          0.717              1.602              1.228
 Vibration    20          0.744              1.528              1.068
 Vibration    21          0.758              1.491              1.000
 Vibration    22          0.766              1.470              0.962
 Vibration    23          0.772              1.456              0.938
 Vibration    24          0.792              1.404              0.857
 Vibration    25          0.794              1.397              0.847
 Vibration    26          0.823              1.326              0.750
 Vibration    27          0.844              1.276              0.688
 Vibration    28          0.849              1.264              0.674
 Vibration    29          0.855              1.252              0.660
 Vibration    30          0.877              1.201              0.605
 Vibration    31          0.888              1.177              0.580
 Vibration    32          0.899              1.153              0.557
 Vibration    33          0.927              1.094              0.503
 Vibration    34          0.943              1.061              0.474
 Vibration    35          0.959              1.030              0.448
 Vibration    36          0.960              1.029              0.447

 Normal termination of Gaussian 09 at Mon Dec 30 01:48:24 2013.
