 Gaussian 09, Revision C.01,
 Gaussian 09:  EM64L-G09RevC.01 23-Sep-2011

 --------------------------------------------
 #B3LYP/6-31++G(d,p) opt scf=direct freq test
 --------------------------------------------

 Geom opt of No.58 candidate from the CEPDB database with SMILE code of
  c1cc2csc(-c3ncc(-c4ccc(nc4)-c4cncs4)c4nsnc34)c2[nH]1, HPC, 20131227,
 Shuo Dai, Gaussian09
 ----------------------------------------------------------------------
 Charge =  0 Multiplicity = 1

 SCF Done:  E(RB3LYP) =  -2253.10629531     A.U. after   24 cycles
 SCF Done:  E(RB3LYP) =  -2253.12813881     A.U. after   17 cycles
 SCF Done:  E(RB3LYP) =  -2253.13557464     A.U. after   17 cycles
 SCF Done:  E(RB3LYP) =  -2253.13823847     A.U. after   15 cycles
 SCF Done:  E(RB3LYP) =  -2253.13886996     A.U. after   15 cycles
 SCF Done:  E(RB3LYP) =  -2253.13903654     A.U. after   14 cycles
 SCF Done:  E(RB3LYP) =  -2253.13911500     A.U. after   13 cycles
 SCF Done:  E(RB3LYP) =  -2253.13915041     A.U. after   13 cycles
 SCF Done:  E(RB3LYP) =  -2253.13916385     A.U. after   12 cycles
 SCF Done:  E(RB3LYP) =  -2253.13917140     A.U. after   12 cycles
 SCF Done:  E(RB3LYP) =  -2253.13917564     A.U. after   13 cycles
 SCF Done:  E(RB3LYP) =  -2253.13917743     A.U. after   12 cycles
 SCF Done:  E(RB3LYP) =  -2253.13917794     A.U. after   11 cycles
 SCF Done:  E(RB3LYP) =  -2253.13917797     A.U. after   10 cycles
 Optimization completed.
    -- Stationary point found.

 1\1\GINC-N016\FOpt\RB3LYP\6-31++G(d,p)\C19H10N6S3\SHUO\29-Dec-2013\0\\
 #B3LYP/6-31++G(d,p) opt scf=direct freq test\\Geom opt of No.58 candid
 ate from the CEPDB database with SMILE code of c1cc2csc(-c3ncc(-c4ccc(
 nc4)-c4cncs4)c4nsnc34)c2[nH]1, HPC, 20131227, Shuo Dai, Gaussian09\\0,
 1\C,-2.0844696705,0.4252663892,0.0949350966\C,-1.2563223872,1.50973950
 55,0.2106291448\C,0.0893285949,0.9884123518,0.2217438168\C,1.403973465
 5,1.3991652571,0.3049464838\S,2.5030511238,0.0679267065,0.2451194017\C
 ,1.2051051142,-1.1241661785,0.1009309974\C,1.5705349403,-2.5102703945,

 Normal termination of Gaussian 09 at Sun Dec 29 14:16:08 2013.

 ----------------------------------------------------------------------
 #N Geom=AllCheck Guess=TCheck SCRF=Check Test GenChk RB3LYP/6-31++G(d,
 p) Freq
 ----------------------------------------------------------------------

 Geom opt of No.58 candidate from the CEPDB database with SMILE code of
  c1cc2csc(-c3ncc(-c4ccc(nc4)-c4cncs4)c4nsnc34)c2[nH]1, HPC, 20131227,
 Shuo Dai, Gaussian09
 ----------------------------------------------------------------------
 Charge =  0 Multiplicity = 1

                         Standard orientation:
 ---------------------------------------------------------------------
 Center     Atomic      Atomic             Coordinates (Angstroms)
 Number     Number       Type             X           Y           Z
 ---------------------------------------------------------------------
      1          6           0       -6.721404    1.610641    0.065423
      2          6           0       -7.397686    0.425672   -0.051987
      3          6           0       -6.391177   -0.606054   -0.123853
      4          6           0       -6.256213   -1.974085   -0.243052
      5         16           0       -4.599356   -2.462356   -0.255826
      6          6           0       -4.007349   -0.803880   -0.096066
      7          6           0       -2.586528   -0.596978   -0.050261
      8          7           0       -1.805022   -1.674667   -0.136462
      9          6           0       -0.457856   -1.574017   -0.098385
     10          6           0        0.288057   -0.409632    0.037022
     11          6           0        1.760486   -0.430154    0.090374
     12          6           0        2.459197   -1.500549    0.678859
     13          6           0        3.846595   -1.513243    0.679744
     14          6           0        4.539898   -0.439350    0.093043
     15          7           0        3.883992    0.596692   -0.465452
     16          6           0        2.551357    0.597759   -0.461177
     17          6           0        6.001496   -0.380870    0.058691
     18          6           0        6.938861   -1.272100    0.534267
     19          7           0        8.255890   -0.935604    0.349103
     20          6           0        8.343177    0.213229   -0.267918
     21         16           0        6.830794    0.973075   -0.670507
     22          6           0       -0.499630    0.783578    0.122728
     23          7           0       -0.048639    2.037947    0.262901
     24         16           0       -1.358844    3.022036    0.331471
     25          7           0       -2.549293    1.890499    0.189409
     26          6           0       -1.950286    0.700572    0.082078
     27          6           0       -5.112074    0.048959   -0.041346
     28          7           0       -5.347336    1.392946    0.072338
     29          1           0       -4.604269    2.076198    0.149572
     30          1           0       -7.107606    2.617009    0.146924
     31          1           0       -8.470480    0.305716   -0.083206
     32          1           0       -7.032549   -2.723425   -0.324457
     33          1           0        0.061397   -2.523061   -0.206593
     34          1           0        1.915693   -2.310703    1.155531
     35          1           0        4.383264   -2.335210    1.140866
     36          1           0        2.078950    1.458021   -0.923490
     37          1           0        6.708590   -2.204767    1.035279
     38          1           0        9.284835    0.684467   -0.524614
 ---------------------------------------------------------------------

 SCF Done:  E(RB3LYP) =  -2253.13917797     A.U. after    2 cycles

 The electronic state is 1-A.
 Alpha  occ. eigenvalues --  -89.00174 -88.92731 -88.92493 -14.40635 -14.39547
 Alpha  occ. eigenvalues --  -14.39418 -14.35148 -14.34794 -14.34751 -10.27453
 Alpha  occ. eigenvalues --  -10.27318 -10.27135 -10.25601 -10.25465 -10.24966
 Alpha  occ. eigenvalues --  -10.24536 -10.24299 -10.23952 -10.23769 -10.23646
 Alpha  occ. eigenvalues --  -10.23598 -10.23062 -10.22855 -10.22654 -10.22383
 Alpha  occ. eigenvalues --  -10.21675 -10.21315 -10.20132  -8.05463  -7.98492
 Alpha  occ. eigenvalues --   -7.98415  -6.02036  -6.01453  -6.01195  -5.94942
 Alpha  occ. eigenvalues --   -5.94804  -5.94539  -5.94452  -5.94206  -5.94165
 Alpha  occ. eigenvalues --   -1.04699  -0.99928  -0.97289  -0.96524  -0.95878
 Alpha  occ. eigenvalues --   -0.92046  -0.88499  -0.84726  -0.81994  -0.81492
 Alpha  occ. eigenvalues --   -0.80847  -0.78994  -0.77359  -0.74761  -0.74285
 Alpha  occ. eigenvalues --   -0.72322  -0.68577  -0.66423  -0.65847  -0.64162
 Alpha  occ. eigenvalues --   -0.63207  -0.61445  -0.59718  -0.59005  -0.57591
 Alpha  occ. eigenvalues --   -0.56850  -0.55821  -0.54008  -0.53591  -0.51873
 Alpha  occ. eigenvalues --   -0.49989  -0.49219  -0.47987  -0.47461  -0.46854
 Alpha  occ. eigenvalues --   -0.45508  -0.44561  -0.44532  -0.44096  -0.43454
 Alpha  occ. eigenvalues --   -0.43193  -0.43126  -0.42282  -0.41199  -0.41081
 Alpha  occ. eigenvalues --   -0.40559  -0.40295  -0.39462  -0.38712  -0.37082
 Alpha  occ. eigenvalues --   -0.36872  -0.35688  -0.35574  -0.35466  -0.32971
 Alpha  occ. eigenvalues --   -0.32130  -0.30289  -0.30191  -0.29794  -0.28898
 Alpha  occ. eigenvalues --   -0.28319  -0.28073  -0.26910  -0.26409  -0.24640
 Alpha  occ. eigenvalues --   -0.23508  -0.20231
 Alpha virt. eigenvalues --   -0.11945  -0.07364  -0.05783  -0.04027  -0.02873
 Alpha virt. eigenvalues --   -0.02536  -0.01442  -0.01084  -0.00720  -0.00293
 Alpha virt. eigenvalues --    0.00051   0.00305   0.00546   0.00890   0.01602

 Mulliken atomic charges:
              1
     1  C    0.073096
     2  C    0.304739
     3  C    0.349817
     4  C   -0.532284
     5  S    0.286473
     6  C   -0.721582
     7  C   -0.439864
     8  N   -0.139984
     9  C   -0.437923
    10  C   -0.773222
    11  C    0.077657
    12  C   -0.077133
    13  C   -0.356165
    14  C    0.344256
    15  N   -0.103518
    16  C   -0.225542
    17  C   -0.509787
    18  C   -0.213499
    19  N   -0.077930
    20  C   -0.150878
    21  S    0.474653
    22  C    0.665127
    23  N   -0.361900
    24  S    0.992704
    25  N   -0.615391
    26  C    1.026722
    27  C   -0.556869
    28  N   -0.135692
    29  H    0.414836
    30  H    0.142354
    31  H    0.142695
    32  H    0.171130
    33  H    0.168797
    34  H    0.149309
    35  H    0.075945
    36  H    0.197035
    37  H    0.186780
    38  H    0.185037
 Sum of Mulliken atomic charges =  -0.00000

 Dipole moment (field-independent basis, Debye):
    X=             -4.8574    Y=              1.6309    Z=              0.4681  Tot=              5.1452
 Quadrupole moment (field-independent basis, Debye-Ang):
   XX=           -182.1886   YY=           -169.1232   ZZ=           -185.3656
   XY=             -4.8442   XZ=             -2.4408   YZ=             -2.1555

  Exact polarizability: 782.776  19.530 332.347   8.843  -8.876 166.874
 Approx polarizability:1136.636  51.423 671.098  22.479 -23.777 285.252

                     1                      2                      3
                     A                      A                      A
 Frequencies --    17.9522                23.7083                31.5848
 Red. masses --     8.4486                 7.9397                 8.6787
 Frc consts  --     0.0016                 0.0026                 0.0051
 IR Inten    --     0.0721                 0.1162                 0.1303

                     4                      5                      6
                     A                      A                      A
 Frequencies --    43.8999                61.2945                67.3771
 Red. masses --     8.0859                 5.0854                 7.2856
 Frc consts  --     0.0092                 0.0113                 0.0195
 IR Inten    --     0.3511                 1.9823                 0.4567

                     7                      8                      9
                     A                      A                      A
 Frequencies --    97.9959               113.4871               137.6536
 Red. masses --     8.4574                 8.0505                 8.2239
 Frc consts  --     0.0479                 0.0611                 0.0918
 IR Inten    --     0.5914                 1.1117                 0.9209

                    10                     11                     12
                     A                      A                      A
 Frequencies --   151.4196               163.0726               196.5621
 Red. masses --     9.0028                 7.5968                 8.2397
 Frc consts  --     0.1216                 0.1190                 0.1876
 IR Inten    --     0.4682                 1.0939                 0.3478

                    13                     14                     15
                     A                      A                      A
 Frequencies --   211.1031               219.2020               230.9201
 Red. masses --     7.8992                10.9923                 7.0542
 Frc consts  --     0.2074                 0.3112                 0.2216
 IR Inten    --     1.5408                 2.1305                 6.2703

                    16                     17                     18
                     A                      A                      A
 Frequencies --   259.8228               291.8353               322.4514
 Red. masses --     7.8171                 7.6216                 6.2779
 Frc consts  --     0.3109                 0.3824                 0.3846
 IR Inten    --     0.4170                 0.2902                 0.7563

                    19                     20                     21
                     A                      A                      A
 Frequencies --   336.2996               385.7963               412.5772
 Red. masses --     6.4032                 5.6867                 5.7983
 Frc consts  --     0.4267                 0.4987                 0.5815
 IR Inten    --     0.4280                 0.1623                 9.8218

                    22                     23                     24
                     A                      A                      A
 Frequencies --   415.5070               432.5188               456.7495
 Red. masses --     3.5217                 6.9039                 7.0117
 Frc consts  --     0.3582                 0.7609                 0.8618
 IR Inten    --     4.1020                23.1696                 2.8294

                    25                     26                     27
                     A                      A                      A
 Frequencies --   460.1920               495.5894               508.3719
 Red. masses --     6.0086                 5.6119                 8.3815
 Frc consts  --     0.7497                 0.8121                 1.2763
 IR Inten    --     6.7672                10.8930                 4.9129

                    28                     29                     30
                     A                      A                      A
 Frequencies --   517.1174               538.2606               539.9332
 Red. masses --    13.5198                10.5419                 8.1337
 Frc consts  --     2.1301                 1.7995                 1.3971
 IR Inten    --     9.2189                10.4535                 7.4151

                    31                     32                     33
                     A                      A                      A
 Frequencies --   567.4407               574.1197               603.7471
 Red. masses --     2.9034                 4.2233                 4.6198
 Frc consts  --     0.5508                 0.8202                 0.9922
 IR Inten    --     8.3316                19.3000                 3.3749

                    34                     35                     36
                     A                      A                      A
 Frequencies --   612.5142               640.1838               649.9982
 Red. masses --     3.5813                 8.1240                 8.5980
 Frc consts  --     0.7916                 1.9617                 2.1403
 IR Inten    --     7.6034                 3.1136                 2.3489

                    37                     38                     39
                     A                      A                      A
 Frequencies --   654.2719               657.1741               686.0775
 Red. masses --     1.2437                10.9522                 7.0675
 Frc consts  --     0.3137                 2.7868                 1.9600
 IR Inten    --    18.8177                 1.8698                 2.6363

                    40                     41                     42
                     A                      A                      A
 Frequencies --   716.6765               723.8125               744.1108
 Red. masses --     9.5868                 1.8414                 1.6100
 Frc consts  --     2.9011                 0.5684                 0.5252
 IR Inten    --     7.6896                64.5487                 6.6881

                    43                     44                     45
                     A                      A                      A
 Frequencies --   744.3080               750.6647               773.5419
 Red. masses --     4.8622                 7.6511                 7.0499
 Frc consts  --     1.5870                 2.5402                 2.4854
 IR Inten    --    51.3391                 3.4538                 1.2062

                    46                     47                     48
                     A                      A                      A
 Frequencies --   776.7951               782.6278               801.6607
 Red. masses --     5.9006                 2.2957                 1.8249
 Frc consts  --     2.0978                 0.8285                 0.6910
 IR Inten    --     2.5667                55.3934                18.3329

                    49                     50                     51
                     A                      A                      A
 Frequencies --   803.1531               832.6014               846.8955
 Red. masses --     2.6387                12.6516                 8.6021
 Frc consts  --     1.0028                 5.1674                 3.6351
 IR Inten    --     6.8233                56.5505                21.8558

                    52                     53                     54
                     A                      A                      A
 Frequencies --   852.3002               853.9549               872.0696
 Red. masses --     3.6067                 1.7966                 1.5610
 Frc consts  --     1.5436                 0.7719                 0.6994
 IR Inten    --    36.5518                22.1450                 2.4091

                    55                     56                     57
                     A                      A                      A
 Frequencies --   876.9984               879.6765               886.3369
 Red. masses --     1.3229                 4.5079                 8.0182
 Frc consts  --     0.5995                 2.0553                 3.7113
 IR Inten    --     0.5216                20.3633                19.6630

                    58                     59                     60
                     A                      A                      A
 Frequencies --   893.9115               948.0639               952.5752
 Red. masses --     6.9784                 1.4895                 5.6964
 Frc consts  --     3.2855                 0.7888                 3.0454
 IR Inten    --    36.9409                 7.9532                 1.6439

                    61                     62                     63
                     A                      A                      A
 Frequencies --   958.4217               966.3530               987.1967
 Red. masses --     1.5499                 3.7924                 1.3736
 Frc consts  --     0.8388                 2.0866                 0.7887
 IR Inten    --     8.0679                19.8743                 3.0577

                    64                     65                     66
                     A                      A                      A
 Frequencies --   999.1124              1041.7617              1074.2355
 Red. masses --     7.2705                 2.9387                 2.0407
 Frc consts  --     4.2760                 1.8791                 1.3875
 IR Inten    --    29.6099                 5.3418                10.4231

                    67                     68                     69
                     A                      A                      A
 Frequencies --  1093.3593              1129.5839              1158.0403
 Red. masses --     2.0267                 1.8944                 1.9216
 Frc consts  --     1.4275                 1.4242                 1.5183
 IR Inten    --     8.2256                30.3266                28.8875

                    70                     71                     72
                     A                      A                      A
 Frequencies --  1163.3059              1173.2957              1207.8335
 Red. masses --     2.0209                 1.7988                 4.8955
 Frc consts  --     1.6114                 1.4590                 4.2078
 IR Inten    --    11.8611                 4.8485               103.7348

                    73                     74                     75
                     A                      A                      A
 Frequencies --  1223.0060              1254.5637              1284.9235
 Red. masses --     2.0849                 1.7628                 2.3322
 Frc consts  --     1.8373                 1.6347                 2.2687
 IR Inten    --    50.3427                19.6930                 7.3487

                    76                     77                     78
                     A                      A                      A
 Frequencies --  1295.0330              1315.2663              1326.8362
 Red. masses --     3.2504                 4.2163                 1.6418
 Frc consts  --     3.2118                 4.2974                 1.7030
 IR Inten    --    31.2373                14.5452                 0.6227

                    79                     80                     81
                     A                      A                      A
 Frequencies --  1334.9558              1342.4363              1348.0069
 Red. masses --     2.1233                 5.2797                 2.1574
 Frc consts  --     2.2294                 5.6060                 2.3098
 IR Inten    --     7.6794                 0.2867                10.9824

                    82                     83                     84
                     A                      A                      A
 Frequencies --  1357.0760              1358.4737              1383.6270
 Red. masses --     2.1838                 5.8691                 5.6613
 Frc consts  --     2.3696                 6.3815                 6.3856
 IR Inten    --    11.5942                76.9287               183.9408

                    85                     86                     87
                     A                      A                      A
 Frequencies --  1423.0439              1435.0148              1441.2029
 Red. masses --     2.9602                 2.9164                 6.7663
 Frc consts  --     3.5319                 3.5384                 8.2805
 IR Inten    --   114.5198                24.4940                42.8115

                    88                     89                     90
                     A                      A                      A
 Frequencies --  1449.3239              1495.8858              1514.3987
 Red. masses --     6.7252                 5.7480                 3.0752
 Frc consts  --     8.3232                 7.5782                 4.1554
 IR Inten    --    34.2583               642.6892                10.2732

                    91                     92                     93
                     A                      A                      A
 Frequencies --  1543.8328              1555.9981              1560.7097
 Red. masses --     6.5285                 7.0358                 4.7690
 Frc consts  --     9.1678                10.0364                 6.8441
 IR Inten    --   471.8672                73.4776                69.1622

                    94                     95                     96
                     A                      A                      A
 Frequencies --  1562.0594              1575.6546              1592.2106
 Red. masses --     5.5852                 5.1182                 5.6578
 Frc consts  --     8.0294                 7.4867                 8.4508
 IR Inten    --    44.3397                48.3242                30.0408

                    97                     98                     99
                     A                      A                      A
 Frequencies --  1635.7290              1638.1638              3178.8899
 Red. masses --     7.3393                 5.7919                 1.0899
 Frc consts  --    11.5699                 9.1577                 6.4892
 IR Inten    --   292.1733               119.9027                36.4930

                   100                    101                    102
                     A                      A                      A
 Frequencies --  3194.4001              3211.8198              3213.4049
 Red. masses --     1.0884                 1.0919                 1.0940
 Frc consts  --     6.5436                 6.6362                 6.6555
 IR Inten    --     4.1292                19.5832                 1.4455

                   103                    104                    105
                     A                      A                      A
 Frequencies --  3230.4311              3235.3521              3254.4753
 Red. masses --     1.0915                 1.0944                 1.0934
 Frc consts  --     6.7110                 6.7492                 6.8233
 IR Inten    --     5.8309                 0.6369                 6.2651

                   106                    107                    108
                     A                      A                      A
 Frequencies --  3259.3831              3278.4589              3590.8636
 Red. masses --     1.0903                 1.1035                 1.0819
 Frc consts  --     6.8244                 6.9879                 8.2190
 IR Inten    --     0.7250                 5.9471                64.3355

 - Thermochemistry -
 -------------------
 Temperature   298.150 Kelvin.  Pressure   1.00000 Atm.
 Atom     1 has atomic number  6 and mass  12.00000

 Molecular mass:   418.01291 amu.
 Principal axes and moments of inertia in atomic units:
                           1         2         3
     Eigenvalues --  3675.70118********************
           X            0.99999  -0.00363   0.00091
           Y            0.00363   0.99996  -0.00778
           Z           -0.00088   0.00778   0.99997
 This molecule is an asymmetric top.
 Rotational symmetry number  1.
 Warning -- assumption of classical behavior for rotation
           may cause significant error
 Rotational temperatures (Kelvin)      0.02356     0.00253     0.00231
 Rotational constants (GHZ):           0.49099     0.05269     0.04805
 Zero-point vibrational energy     681548.0 (Joules/Mol)
                                  162.89388 (Kcal/Mol)
 Warning -- explicit consideration of  34 degrees of freedom as
           vibrations may cause significant error
 Vibrational temperatures:     25.83    34.11    45.44    63.16    88.19
          (Kelvin)             96.94   140.99   163.28   198.05   217.86
                              234.62   282.81   303.73   315.38   332.24
                              373.83   419.89   463.93   483.86   555.07
                              593.61   597.82   622.30   657.16   662.11
                              713.04   731.43   744.02   774.44   776.84
                              816.42   826.03   868.66   881.27   921.08
                              935.20   941.35   945.53   987.11  1031.14
                             1041.40  1070.61  1070.89  1080.04  1112.95
                             1117.63  1126.03  1153.41  1155.56  1197.93
                             1218.49  1226.27  1228.65  1254.71  1261.80
                             1265.66  1275.24  1286.14  1364.05  1370.54
                             1378.95  1390.36  1420.35  1437.50  1498.86
                             1545.58  1573.10  1625.22  1666.16  1673.74
                             1688.11  1737.80  1759.63  1805.04  1848.72
                             1863.26  1892.37  1909.02  1920.70  1931.46
                             1939.48  1952.53  1954.54  1990.73  2047.44
                             2064.66  2073.57  2085.25  2152.24  2178.88
                             2221.23  2238.73  2245.51  2247.45  2267.01
                             2290.83  2353.45  2356.95  4573.71  4596.02
                             4621.09  4623.37  4647.86  4654.94  4682.46
                             4689.52  4716.97  5166.45

 Zero-point correction=                           0.259588 (Hartree/Particle)
 Thermal correction to Energy=                    0.280909
 Thermal correction to Enthalpy=                  0.281853
 Thermal correction to Gibbs Free Energy=         0.206232
 Sum of electronic and zero-point Energies=          -2252.879590
 Sum of electronic and thermal Energies=             -2252.858269
 Sum of electronic and thermal Enthalpies=           -2252.857325
 Sum of electronic and thermal Free Energies=        -2252.932946

                     E (Thermal)             CV                S
                      KCal/Mol        Cal/Mol-Kelvin    Cal/Mol-Kelvin
 Total                  176.273             83.960            159.159
 Electronic               0.000              0.000              0.000
 Translational            0.889              2.981             43.982
 Rotational               0.889              2.981             36.801
 Vibrational            174.496             77.999             78.376
 Vibration     1          0.593              1.986              6.849
 Vibration     2          0.593              1.985              6.297
 Vibration     3          0.594              1.983              5.727
 Vibration     4          0.595              1.980              5.075
 Vibration     5          0.597              1.973              4.415
 Vibration     6          0.598              1.970              4.229
 Vibration     7          0.603              1.951              3.494
 Vibration     8          0.607              1.938              3.208
 Vibration     9          0.614              1.916              2.836
 Vibration    10          0.619              1.901              2.654
 Vibration    11          0.623              1.888              2.514
 Vibration    12          0.636              1.845              2.165
 Vibration    13          0.643              1.824              2.034
 Vibration    14          0.647              1.812              1.966
 Vibration    15          0.653              1.794              1.872
 Vibration    16          0.668              1.746              1.663
 Vibration    17          0.687              1.689              1.463
 Vibration    18          0.707              1.630              1.298
 Vibration    19          0.717              1.603              1.230
 Vibration    20          0.754              1.501              1.016
 Vibration    21          0.776              1.443              0.918
 Vibration    22          0.779              1.437              0.907
 Vibration    23          0.793              1.399              0.850
 Vibration    24          0.815              1.346              0.776
 Vibration    25          0.818              1.338              0.766
 Vibration    26          0.851              1.260              0.669
 Vibration    27          0.864              1.231              0.638
 Vibration    28          0.872              1.212              0.617
 Vibration    29          0.893              1.165              0.569
 Vibration    30          0.895              1.162              0.565
 Vibration    31          0.923              1.102              0.509
 Vibration    32          0.930              1.087              0.496
 Vibration    33          0.962              1.024              0.443
 Vibration    34          0.972              1.005              0.429

 Optimization completed.
    -- Stationary point found.

 1\1\GINC-N016\Freq\RB3LYP\6-31++G(d,p)\C19H10N6S3\SHUO\29-Dec-2013\0\\
 #N Geom=AllCheck Guess=TCheck SCRF=Check Test GenChk RB3LYP/6-31++G(d,
 p) Freq\\Geom opt of No.58 candidate from the CEPDB database with SMIL
 E code of c1cc2csc(-c3ncc(-c4ccc(nc4)-c4cncs4)c4nsnc34)c2[nH]1, HPC, 2
 0131227, Shuo Dai, Gaussian09\\0,1\C,-2.0844696705,0.4252663892,0.0949
 350966\C,-1.2563223872,1.5097395055,0.2106291448\C,0.0893285949,0.9884
 123518,0.2217438168\C,1.4039734655,1.3991652571,0.3049464838\S,2.50305
 11238,0.0679267065,0.2451194017\C,1.2051051142,-1.1241661785,0.1009309

 Normal termination of Gaussian 09 at Sun Dec 29 15:32:20 2013.
