 Gaussian 09, Revision C.01,
 Gaussian 09:  EM64L-G09RevC.01 23-Sep-2011

 --------------------------------------------
 #B3LYP/6-31++G(d,p) opt scf=direct freq test
 --------------------------------------------

 Geom opt of No.55 candidate from the CEPDB database with SMILE code of
  C1ccc2csc(c12)-c1ncc(s1)-c1ncc(-c2cccc3cocc23)c2nsnc12, HPC, 20131227
 , Shuo Dai, Gaussian09
 ----------------------------------------------------------------------
 Charge =  0 Multiplicity = 1

 SCF Done:  E(RB3LYP) =  -2372.38508397     A.U. after   26 cycles
 SCF Done:  E(RB3LYP) =  -2372.43060161     A.U. after   66 cycles
 SCF Done:  E(RB3LYP) =  -2372.44974648     A.U. after   18 cycles
 SCF Done:  E(RB3LYP) =  -2372.45247413     A.U. after   14 cycles
 SCF Done:  E(RB3LYP) =  -2372.45348555     A.U. after   17 cycles
 SCF Done:  E(RB3LYP) =  -2372.45398473     A.U. after   17 cycles
 SCF Done:  E(RB3LYP) =  -2372.45412426     A.U. after   13 cycles
 SCF Done:  E(RB3LYP) =  -2372.45418330     A.U. after   13 cycles
 SCF Done:  E(RB3LYP) =  -2372.45419312     A.U. after   12 cycles
 SCF Done:  E(RB3LYP) =  -2372.45419699     A.U. after   11 cycles
 SCF Done:  E(RB3LYP) =  -2372.45419740     A.U. after   10 cycles
 SCF Done:  E(RB3LYP) =  -2372.45419750     A.U. after   10 cycles
 SCF Done:  E(RB3LYP) =  -2372.45419754     A.U. after    9 cycles
 Optimization completed.
    -- Stationary point found.
 Normal termination of Gaussian 09 at Sun Dec 29 13:26:30 2013.

 ----------------------------------------------------------------------
 #N Geom=AllCheck Guess=TCheck SCRF=Check Test GenChk RB3LYP/6-31++G(d,
 p) Freq
 ----------------------------------------------------------------------

 Geom opt of No.55 candidate from the CEPDB database with SMILE code of
  C1ccc2csc(c12)-c1ncc(s1)-c1ncc(-c2cccc3cocc23)c2nsnc12, HPC, 20131227
 , Shuo Dai, Gaussian09
 ----------------------------------------------------------------------
 Charge =  0 Multiplicity = 1

                         Standard orientation:
 ---------------------------------------------------------------------
 Center     Atomic      Atomic             Coordinates (Angstroms)
 Number     Number       Type             X           Y           Z
 ---------------------------------------------------------------------
      1          6           0       -6.143277   -2.333996    0.346269
      2          6           0       -7.656966   -2.458876    0.320200
      3          6           0       -8.259179   -1.273121    0.079627
      4          6           0       -7.231331   -0.242834   -0.078106
      5          6           0       -7.154318    1.104397   -0.325180
      6         16           0       -5.497017    1.633812   -0.368226
      7          6           0       -4.893611    0.006276   -0.046292
      8          6           0       -5.951381   -0.865192    0.079735
      9          6           0       -3.486600   -0.304773    0.060819
     10          7           0       -3.045515   -1.529231    0.299745
     11          6           0       -1.690338   -1.557919    0.355948
     12          6           0       -1.026352   -0.357627    0.163277
     13         16           0       -2.215804    0.899869   -0.109641
     14          6           0        0.414622   -0.171473    0.187442
     15          7           0        1.174412   -1.237783    0.401863
     16          6           0        2.527572   -1.134456    0.434771
     17          6           0        3.281799    0.020558    0.265349
     18          6           0        4.754901    0.015446    0.329362
     19          6           0        5.461255    1.057190    0.898473
     20          6           0        6.887704    1.052925    1.021175
     21          6           0        7.649578    0.010287    0.563440
     22          6           0        6.980958   -1.083678   -0.062353
     23          6           0        7.423755   -2.238535   -0.668474
     24          8           0        6.363729   -2.934172   -1.150595
     25          6           0        5.222696   -2.251849   -0.864102
     26          6           0        5.529442   -1.091750   -0.184567
     27          6           0        2.499399    1.203090    0.041045
     28          7           0        2.944421    2.451465   -0.164225
     29         16           0        1.622410    3.398656   -0.388269
     30          7           0        0.440018    2.269506   -0.237197
     31          6           0        1.054183    1.106202   -0.004152
     32          1           0       -5.655052   -2.960330   -0.411737
     33          1           0       -5.710024   -2.641043    1.307115
     34          1           0       -8.169769   -3.401317    0.478689
     35          1           0       -9.327277   -1.102263    0.013011
     36          1           0       -7.946051    1.823694   -0.484771
     37          1           0       -1.175373   -2.490891    0.545511
     38          1           0        3.037932   -2.068950    0.645591
     39          1           0        4.918905    1.913254    1.281254
     40          1           0        7.364749    1.904777    1.496458
     41          1           0        8.730844    0.014739    0.661432
     42          1           0        8.396468   -2.673695   -0.833305
     43          1           0        4.310957   -2.701432   -1.219846
 ---------------------------------------------------------------------

 SCF Done:  E(RB3LYP) =  -2372.45419754     A.U. after    2 cycles

 The electronic state is 1-A.
 Alpha  occ. eigenvalues --  -88.99734 -88.92957 -88.92512 -19.24318 -14.39707
 Alpha  occ. eigenvalues --  -14.39077 -14.35452 -14.34863 -10.27513 -10.27044
 Alpha  occ. eigenvalues --  -10.26716 -10.26522 -10.25136 -10.25064 -10.24193
 Alpha  occ. eigenvalues --  -10.24085 -10.23972 -10.23367 -10.23106 -10.23076
 Alpha  occ. eigenvalues --  -10.22368 -10.21218 -10.21215 -10.21030 -10.20969
 Alpha  occ. eigenvalues --  -10.20962 -10.20638 -10.20616 -10.20555 -10.20449
 Alpha  occ. eigenvalues --  -10.20395  -8.05025  -7.98818  -7.98386  -6.01584
 Alpha  occ. eigenvalues --   -6.01000  -6.00784  -5.95236  -5.94878  -5.94838
 Alpha  occ. eigenvalues --   -5.94526  -5.94445  -5.94072  -1.13188  -1.04256
 Alpha  occ. eigenvalues --   -0.97910  -0.96272  -0.91606  -0.90672  -0.87548
 Alpha  occ. eigenvalues --   -0.84010  -0.83045  -0.82227  -0.79444  -0.78804
 Alpha  occ. eigenvalues --   -0.78572  -0.76849  -0.74533  -0.73059  -0.71816
 Alpha  occ. eigenvalues --   -0.69644  -0.68270  -0.65243  -0.65060  -0.63482
 Alpha  occ. eigenvalues --   -0.61996  -0.61091  -0.59109  -0.58352  -0.57542
 Alpha  occ. eigenvalues --   -0.55469  -0.54449  -0.53723  -0.52723  -0.52466
 Alpha  occ. eigenvalues --   -0.51070  -0.49987  -0.48145  -0.47825  -0.47666
 Alpha  occ. eigenvalues --   -0.47079  -0.46973  -0.45392  -0.45290  -0.44679
 Alpha  occ. eigenvalues --   -0.43511  -0.43287  -0.43016  -0.42824  -0.41868
 Alpha  occ. eigenvalues --   -0.40442  -0.40171  -0.40139  -0.38687  -0.38516
 Alpha  occ. eigenvalues --   -0.38376  -0.37873  -0.37602  -0.37515  -0.37299
 Alpha  occ. eigenvalues --   -0.36352  -0.35416  -0.34252  -0.33885  -0.32435
 Alpha  occ. eigenvalues --   -0.31725  -0.30623  -0.29937  -0.29328  -0.28728
 Alpha  occ. eigenvalues --   -0.28208  -0.27923  -0.27365  -0.25870  -0.23619
 Alpha  occ. eigenvalues --   -0.21763  -0.20152
 Alpha virt. eigenvalues --   -0.11874  -0.07251  -0.06311  -0.03439  -0.02390
 Alpha virt. eigenvalues --   -0.01950  -0.01701  -0.01524  -0.00651  -0.00428
 Alpha virt. eigenvalues --    0.00192   0.00616   0.00689   0.00989   0.01171

 Mulliken atomic charges:
              1
     1  C   -0.745359
     2  C   -0.032287
     3  C   -0.236405
     4  C   -0.531120
     5  C    0.037950
     6  S    0.011742
     7  C    0.060099
     8  C    0.359883
     9  C    0.052756
    10  N   -0.046182
    11  C    0.204737
    12  C   -0.949494
    13  S    0.406960
    14  C   -0.239701
    15  N   -0.134464
    16  C   -0.389375
    17  C   -0.682335
    18  C   -0.303904
    19  C   -0.054898
    20  C    0.131452
    21  C   -1.187299
    22  C    0.690575
    23  C    0.369848
    24  O   -0.183722
    25  C    0.341059
    26  C   -0.307700
    27  C    0.479456
    28  N   -0.361545
    29  S    1.018568
    30  N   -0.466643
    31  C    0.826960
    32  H    0.189898
    33  H    0.189714
    34  H    0.126879
    35  H    0.102877
    36  H    0.179538
    37  H    0.212924
    38  H    0.171044
    39  H    0.123690
    40  H    0.122985
    41  H    0.089844
    42  H    0.167841
    43  H    0.183151
 Sum of Mulliken atomic charges =  -0.00000

 Dipole moment (field-independent basis, Debye):
    X=             -0.0734    Y=              0.6896    Z=              0.1981  Tot=              0.7212
 Quadrupole moment (field-independent basis, Debye-Ang):
   XX=           -159.3122   YY=           -189.9399   ZZ=           -202.7585
   XY=              2.2512   XZ=              3.2703   YZ=              0.7778

  Exact polarizability: 840.679  19.313 383.009  11.501  -1.018 191.116
 Approx polarizability:1171.967  48.646 768.962  27.887  -7.396 328.445

                     1                      2                      3
                     A                      A                      A
 Frequencies --    14.7766                17.4890                31.5865
 Red. masses --     7.9988                 6.8602                 8.1917
 Frc consts  --     0.0010                 0.0012                 0.0048
 IR Inten    --     0.1665                 0.5207                 0.1377

                     4                      5                      6
                     A                      A                      A
 Frequencies --    36.3086                49.8133                60.3073
 Red. masses --     7.0838                 6.9463                11.1648
 Frc consts  --     0.0055                 0.0102                 0.0239
 IR Inten    --     0.3359                 0.0607                 0.0803

                     7                      8                      9
                     A                      A                      A
 Frequencies --    72.0601               101.6649               105.6333
 Red. masses --     7.1121                 6.2347                 7.7812
 Frc consts  --     0.0218                 0.0380                 0.0512
 IR Inten    --     0.2511                 0.1390                 0.0545

                    10                     11                     12
                     A                      A                      A
 Frequencies --   147.9371               158.7677               179.6027
 Red. masses --     6.5039                 6.6126                 6.5517
 Frc consts  --     0.0839                 0.0982                 0.1245
 IR Inten    --     0.0604                 0.1162                 0.2863

                    13                     14                     15
                     A                      A                      A
 Frequencies --   190.0393               201.1656               209.2528
 Red. masses --     9.5739                 6.0549                 7.6347
 Frc consts  --     0.2037                 0.1444                 0.1970
 IR Inten    --     0.3742                 1.7088                 0.5194

                    16                     17                     18
                     A                      A                      A
 Frequencies --   221.5870               244.6077               249.9320
 Red. masses --     5.3812                 8.2256                 4.3259
 Frc consts  --     0.1557                 0.2900                 0.1592
 IR Inten    --     1.5795                 3.0884                 2.2193

                    19                     20                     21
                     A                      A                      A
 Frequencies --   270.1894               294.9518               314.3989
 Red. masses --     5.2081                 6.7454                 5.1599
 Frc consts  --     0.2240                 0.3457                 0.3005
 IR Inten    --     4.3998                 2.8443                 3.1361

                    22                     23                     24
                     A                      A                      A
 Frequencies --   356.9030               389.9054               414.1090
 Red. masses --     8.8658                 6.1921                 8.1717
 Frc consts  --     0.6654                 0.5546                 0.8256
 IR Inten    --     0.1496                 7.7498                 0.3614

                    25                     26                     27
                     A                      A                      A
 Frequencies --   415.3064               443.8853               447.5071
 Red. masses --     2.5433                 5.9109                 4.9921
 Frc consts  --     0.2585                 0.6862                 0.5890
 IR Inten    --     3.0711                 8.8469                15.4663

                    28                     29                     30
                     A                      A                      A
 Frequencies --   477.7732               498.9003               512.3753
 Red. masses --     6.2095                 6.0105                10.1032
 Frc consts  --     0.8351                 0.8814                 1.5627
 IR Inten    --     5.1357                 1.4659                12.0049

                    31                     32                     33
                     A                      A                      A
 Frequencies --   513.0442               536.4532               537.4517
 Red. masses --     9.8540                 5.1480                 8.0029
 Frc consts  --     1.5282                 0.8729                 1.3620
 IR Inten    --     3.2469                 4.8348                 3.2471

                    34                     35                     36
                     A                      A                      A
 Frequencies --   551.1300               562.0977               602.5686
 Red. masses --     4.3302                 4.7133                 7.2621
 Frc consts  --     0.7749                 0.8774                 1.5536
 IR Inten    --    11.5827                 3.6743                 8.4861

                    37                     38                     39
                     A                      A                      A
 Frequencies --   608.0440               616.4822               627.6217
 Red. masses --     7.6441                 5.1739                 4.4782
 Frc consts  --     1.6651                 1.1585                 1.0393
 IR Inten    --     4.4906                11.1665                14.4875

                    40                     41                     42
                     A                      A                      A
 Frequencies --   632.2194               641.5070               665.8291
 Red. masses --     6.5986                 6.0530                 7.5355
 Frc consts  --     1.5539                 1.4677                 1.9683
 IR Inten    --    25.6048                 0.0396                 8.4581

                    43                     44                     45
                     A                      A                      A
 Frequencies --   678.7361               681.9518               694.3521
 Red. masses --     2.3635                 1.6899                 4.1608
 Frc consts  --     0.6415                 0.4630                 1.1819
 IR Inten    --    19.9796                 1.3578                 5.0508

                    46                     47                     48
                     A                      A                      A
 Frequencies --   696.0802               711.8999               734.9951
 Red. masses --     6.4358                 1.2715                 1.3895
 Frc consts  --     1.8373                 0.3797                 0.4423
 IR Inten    --    15.0077                 2.4709                 4.0128

                    49                     50                     51
                     A                      A                      A
 Frequencies --   747.3704               751.3544               768.2932
 Red. masses --    10.2425                 7.8327                 1.7628
 Frc consts  --     3.3708                 2.6053                 0.6131
 IR Inten    --     1.0569                 5.2530                46.4490

                    52                     53                     54
                     A                      A                      A
 Frequencies --   769.9755               796.5129               802.2192
 Red. masses --     1.9275                 6.6331                 4.8850
 Frc consts  --     0.6733                 2.4794                 1.8523
 IR Inten    --    64.0620                16.1289                 7.5102

                    55                     56                     57
                     A                      A                      A
 Frequencies --   807.3979               812.5144               834.5999
 Red. masses --     6.0545                 3.9863                 5.2280
 Frc consts  --     2.3254                 1.5506                 2.1456
 IR Inten    --    39.4419                32.9907                28.3754

                    58                     59                     60
                     A                      A                      A
 Frequencies --   841.5619               855.2181               883.5915
 Red. masses --    13.1899                11.8656                 4.1779
 Frc consts  --     5.5038                 5.1132                 1.9218
 IR Inten    --    33.9497                36.4611                 1.7577

                    61                     62                     63
                     A                      A                      A
 Frequencies --   902.1304               907.7258               911.6948
 Red. masses --     4.2844                 6.0836                 1.4119
 Frc consts  --     2.0544                 2.9534                 0.6914
 IR Inten    --    26.3611                 9.6864                 9.7899

                    64                     65                     66
                     A                      A                      A
 Frequencies --   915.8973               933.0654               941.6357
 Red. masses --     1.4486                 3.3501                 1.7227
 Frc consts  --     0.7160                 1.7184                 0.9000
 IR Inten    --     1.1559                15.5170                 8.0352

                    67                     68                     69
                     A                      A                      A
 Frequencies --   942.7757               961.4298               962.3926
 Red. masses --     5.6171                 2.1948                 2.0555
 Frc consts  --     2.9415                 1.1953                 1.1217
 IR Inten    --     0.9324                 7.9037                 6.8285

                    70                     71                     72
                     A                      A                      A
 Frequencies --   964.1680               982.2944              1059.2890
 Red. masses --     1.4918                 1.3114                 2.8661
 Frc consts  --     0.8171                 0.7456                 1.8948
 IR Inten    --     0.0088                 0.5866                 8.2570

                    73                     74                     75
                     A                      A                      A
 Frequencies --  1074.5326              1079.9894              1088.2709
 Red. masses --     2.4880                 3.8804                 2.8026
 Frc consts  --     1.6926                 2.6666                 1.9556
 IR Inten    --     1.3479                 5.6739                41.0119

                    76                     77                     78
                     A                      A                      A
 Frequencies --  1135.2105              1143.5774              1143.9593
 Red. masses --     1.3734                 4.2535                 1.1316
 Frc consts  --     1.0428                 3.2774                 0.8725
 IR Inten    --     6.2903                20.0240                 0.8592

                    79                     80                     81
                     A                      A                      A
 Frequencies --  1167.9125              1184.3545              1186.3963
 Red. masses --     1.9568                 3.6445                 1.9956
 Frc consts  --     1.5726                 3.0120                 1.6550
 IR Inten    --    45.0515                18.7239                 1.3882

                    82                     83                     84
                     A                      A                      A
 Frequencies --  1195.0628              1219.5400              1251.9727
 Red. masses --     1.5967                 2.4054                 1.3527
 Frc consts  --     1.3435                 2.1078                 1.2492
 IR Inten    --    15.0813                 6.2425                 0.5883

                    85                     86                     87
                     A                      A                      A
 Frequencies --  1258.8590              1283.9095              1290.5003
 Red. masses --     1.8159                 3.8900                 2.6398
 Frc consts  --     1.6955                 3.7781                 2.5902
 IR Inten    --   108.5423                 1.2116                32.2443

                    88                     89                     90
                     A                      A                      A
 Frequencies --  1302.6260              1324.0820              1346.6459
 Red. masses --     2.3416                 5.5169                 1.7545
 Frc consts  --     2.3410                 5.6987                 1.8746
 IR Inten    --     4.2965                84.3007                 8.4937

                    91                     92                     93
                     A                      A                      A
 Frequencies --  1352.3846              1354.1991              1358.2989
 Red. masses --     2.4023                 2.8569                 8.0217
 Frc consts  --     2.5886                 3.0869                 8.7198
 IR Inten    --    58.5099                17.1694                24.7734

                    94                     95                     96
                     A                      A                      A
 Frequencies --  1383.5467              1385.8413              1390.4110
 Red. masses --     3.9425                 5.2659                 3.9017
 Frc consts  --     4.4464                 5.9587                 4.4442
 IR Inten    --     8.4008                 4.6524                11.4321

                    97                     98                     99
                     A                      A                      A
 Frequencies --  1412.2371              1440.2850              1449.7587
 Red. masses --     5.0737                 1.3159                 2.1139
 Frc consts  --     5.9620                 1.6083                 2.6177
 IR Inten    --    59.5095                36.5202                19.2634

                   100                    101                    102
                     A                      A                      A
 Frequencies --  1452.8121              1487.1565              1498.0695
 Red. masses --     4.7729                 5.3487                 6.8121
 Frc consts  --     5.9354                 6.9696                 9.0073
 IR Inten    --   537.4609                 7.5311               258.8407

                   103                    104                    105
                     A                      A                      A
 Frequencies --  1529.1953              1546.9550              1550.6724
 Red. masses --     6.8907                 7.9782                 5.8196
 Frc consts  --     9.4938                11.2489                 8.2449
 IR Inten    --   273.7338                15.2653                15.4460

                   106                    107                    108
                     A                      A                      A
 Frequencies --  1576.0549              1585.5449              1588.2717
 Red. masses --     5.2109                 5.5116                 5.2116
 Frc consts  --     7.6262                 8.1636                 7.7459
 IR Inten    --    19.4540                35.3459                 2.5887

                   109                    110                    111
                     A                      A                      A
 Frequencies --  1600.2702              1631.0021              1671.3689
 Red. masses --     6.8236                 7.9792                 6.7340
 Frc consts  --    10.2956                12.5060                11.0833
 IR Inten    --     5.2387                29.8557                 8.3018

                   112                    113                    114
                     A                      A                      A
 Frequencies --  3045.5679              3069.6482              3187.8345
 Red. masses --     1.0613                 1.1004                 1.0865
 Frc consts  --     5.7997                 6.1091                 6.5051
 IR Inten    --     5.1083                 3.2325                 5.4288

                   115                    116                    117
                     A                      A                      A
 Frequencies --  3201.1369              3205.3060              3213.2564
 Red. masses --     1.0901                 1.0955                 1.0874
 Frc consts  --     6.5812                 6.6315                 6.6152
 IR Inten    --    29.7670                30.0863                 1.7672

                   118                    119                    120
                     A                      A                      A
 Frequencies --  3228.3994              3235.6544              3251.3816
 Red. masses --     1.0918                 1.1026                 1.0934
 Frc consts  --     6.7048                 6.8011                 6.8104
 IR Inten    --     2.3780                32.3417                 3.4037

                   121                    122                    123
                     A                      A                      A
 Frequencies --  3259.3797              3296.8290              3310.9096
 Red. masses --     1.0940                 1.0965                 1.0981
 Frc consts  --     6.8479                 7.0220                 7.0921
 IR Inten    --     1.9386                 0.2672                 0.7907

 - Thermochemistry -
 -------------------
 Temperature   298.150 Kelvin.  Pressure   1.00000 Atm.
 Atom     1 has atomic number  6 and mass  12.00000

 Molecular mass:   456.01733 amu.
 Principal axes and moments of inertia in atomic units:
                           1         2         3
     Eigenvalues --  5095.30998********************
           X            0.99999   0.00426   0.00064
           Y           -0.00427   0.99999   0.00263
           Z           -0.00063  -0.00263   1.00000
 This molecule is an asymmetric top.
 Rotational symmetry number  1.
 Warning -- assumption of classical behavior for rotation
           may cause significant error
 Rotational temperatures (Kelvin)      0.01700     0.00220     0.00198
 Rotational constants (GHZ):           0.35420     0.04584     0.04123
 Zero-point vibrational energy     782975.9 (Joules/Mol)
                                  187.13573 (Kcal/Mol)
 Warning -- explicit consideration of  38 degrees of freedom as
           vibrations may cause significant error
 Vibrational temperatures:     21.26    25.16    45.45    52.24    71.67
          (Kelvin)             86.77   103.68   146.27   151.98   212.85
                              228.43   258.41   273.42   289.43   301.07
                              318.81   351.94   359.60   388.74   424.37
                              452.35   513.50   560.99   595.81   597.53
                              638.65   643.86   687.41   717.81   737.19
                              738.16   771.84   773.27   792.95   808.73
                              866.96   874.84   886.98   903.01   909.62
                              922.98   957.98   976.55   981.18   999.02
                             1001.50  1024.26  1057.49  1075.30  1081.03
                             1105.40  1107.82  1146.00  1154.21  1161.66
                             1169.03  1200.80  1210.82  1230.47  1271.29
                             1297.96  1306.01  1311.72  1317.77  1342.47
                             1354.80  1356.44  1383.28  1384.67  1387.22
                             1413.30  1524.08  1546.01  1553.86  1565.78
                             1633.31  1645.35  1645.90  1680.36  1704.02
                             1706.96  1719.43  1754.64  1801.31  1811.22
                             1847.26  1856.74  1874.19  1905.06  1937.52
                             1945.78  1948.39  1954.29  1990.61  1993.91
                             2000.49  2031.89  2072.25  2085.88  2090.27
                             2139.68  2155.39  2200.17  2225.72  2231.07
                             2267.59  2281.24  2285.17  2302.43  2346.65
                             2404.72  4381.89  4416.53  4586.58  4605.72
                             4611.71  4623.15  4644.94  4655.38  4678.01
                             4689.51  4743.40  4763.65

 Zero-point correction=                           0.298220 (Hartree/Particle)
 Thermal correction to Energy=                    0.321909
 Thermal correction to Enthalpy=                  0.322854
 Thermal correction to Gibbs Free Energy=         0.241637
 Sum of electronic and zero-point Energies=          -2372.155978
 Sum of electronic and thermal Energies=             -2372.132288
 Sum of electronic and thermal Enthalpies=           -2372.131344
 Sum of electronic and thermal Free Energies=        -2372.212561

                     E (Thermal)             CV                S
                      KCal/Mol        Cal/Mol-Kelvin    Cal/Mol-Kelvin
 Total                  202.001             93.815            170.935
 Electronic               0.000              0.000              0.000
 Translational            0.889              2.981             44.241
 Rotational               0.889              2.981             37.416
 Vibrational            200.224             87.853             89.279
 Vibration     1          0.593              1.986              7.235
 Vibration     2          0.593              1.986              6.901
 Vibration     3          0.594              1.983              5.727
 Vibration     4          0.594              1.982              5.451
 Vibration     5          0.595              1.978              4.825
 Vibration     6          0.597              1.973              4.447
 Vibration     7          0.598              1.967              4.096
 Vibration     8          0.604              1.948              3.422
 Vibration     9          0.605              1.945              3.348
 Vibration    10          0.617              1.905              2.699
 Vibration    11          0.621              1.893              2.564
 Vibration    12          0.629              1.867              2.333
 Vibration    13          0.633              1.854              2.227
 Vibration    14          0.638              1.838              2.122
 Vibration    15          0.642              1.827              2.050
 Vibration    16          0.648              1.808              1.946
 Vibration    17          0.660              1.772              1.769
 Vibration    18          0.663              1.763              1.731
 Vibration    19          0.674              1.728              1.595
 Vibration    20          0.689              1.683              1.445
 Vibration    21          0.702              1.646              1.339
 Vibration    22          0.732              1.561              1.136
 Vibration    23          0.758              1.492              1.001
 Vibration    24          0.778              1.440              0.912
 Vibration    25          0.779              1.437              0.908
 Vibration    26          0.803              1.374              0.814
 Vibration    27          0.807              1.366              0.803
 Vibration    28          0.834              1.299              0.716
 Vibration    29          0.854              1.252              0.661
 Vibration    30          0.867              1.223              0.628
 Vibration    31          0.868              1.221              0.626
 Vibration    32          0.891              1.169              0.573
 Vibration    33          0.892              1.167              0.571
 Vibration    34          0.906              1.137              0.542
 Vibration    35          0.918              1.113              0.520
 Vibration    36          0.961              1.026              0.445
 Vibration    37          0.967              1.015              0.436
 Vibration    38          0.976              0.997              0.422

 Normal termination of Gaussian 09 at Sun Dec 29 15:20:58 2013.
