 Gaussian 09, Revision C.01,
 Gaussian 09:  EM64L-G09RevC.01 23-Sep-2011

 --------------------------------------------
 #B3LYP/6-31++G(d,p) opt scf=direct freq test
 --------------------------------------------

 Geom opt of No.9 candidate from the CEPDB database with SMILE code of
 c1[nH]cc2c1c1ccncc1c1ccc3cc([nH]c3c21)-c1nccc2nsnc12, HPC, 20131227, S
 huo Dai, Gaussian09
 ----------------------------------------------------------------------
 Charge =  0 Multiplicity = 1

 SCF Done:  E(RB3LYP) =  -1571.91693038     A.U. after   26 cycles
 SCF Done:  E(RB3LYP) =  -1571.98844584     A.U. after   23 cycles
 SCF Done:  E(RB3LYP) =  -1572.05692354     A.U. after   23 cycles
 SCF Done:  E(RB3LYP) =  -1572.12456099     A.U. after   24 cycles
 SCF Done:  E(RB3LYP) =  -1572.22302047     A.U. after   24 cycles
 SCF Done:  E(RB3LYP) =  -1572.26180093     A.U. after   17 cycles
 SCF Done:  E(RB3LYP) =  -1572.30961502     A.U. after   17 cycles
 SCF Done:  E(RB3LYP) =  -1572.33127142     A.U. after   17 cycles
 SCF Done:  E(RB3LYP) =  -1572.33937085     A.U. after   18 cycles
 SCF Done:  E(RB3LYP) =  -1572.34176513     A.U. after   17 cycles
 SCF Done:  E(RB3LYP) =  -1572.34315094     A.U. after   12 cycles
 SCF Done:  E(RB3LYP) =  -1572.34320163     A.U. after   12 cycles
 SCF Done:  E(RB3LYP) =  -1572.34322388     A.U. after   12 cycles
 SCF Done:  E(RB3LYP) =  -1572.34323194     A.U. after   12 cycles
 SCF Done:  E(RB3LYP) =  -1572.34323539     A.U. after   10 cycles
 SCF Done:  E(RB3LYP) =  -1572.34323668     A.U. after   10 cycles
 SCF Done:  E(RB3LYP) =  -1572.34323701     A.U. after    9 cycles
 SCF Done:  E(RB3LYP) =  -1572.34323711     A.U. after    9 cycles
 SCF Done:  E(RB3LYP) =  -1572.34323715     A.U. after    8 cycles
 Optimization completed.
    -- Stationary point found.

 1\1\GINC-N187\FOpt\RB3LYP\6-31++G(d,p)\C22H12N6S1\SHUO\30-Dec-2013\0\\
 #B3LYP/6-31++G(d,p) opt scf=direct freq test\\Geom opt of No.9 candida
 te from the CEPDB database with SMILE code of c1[nH]cc2c1c1ccncc1c1ccc
 3cc([nH]c3c21)-c1nccc2nsnc12, HPC, 20131227, Shuo Dai, Gaussian09\\0,1
 \C,0.1218555605,2.5650140121,-0.7005915558\N,1.4487549211,2.8566824621
 ,-0.8587906567\H,1.809943673,3.7619685136,-1.1178041797\C,2.2284884033
 ,1.750639728,-0.6175893956\C,1.3749996823,0.7010318671,-0.2905244592\C
 ,0.0367270987,1.2260076469,-0.3452825502\C,-1.103210673,0.3898714309,-

 Normal termination of Gaussian 09 at Mon Dec 30 06:21:13 2013.

 ----------------------------------------------------------------------
 #N Geom=AllCheck Guess=TCheck SCRF=Check Test GenChk RB3LYP/6-31++G(d,
 p) Freq
 ----------------------------------------------------------------------

 Geom opt of No.9 candidate from the CEPDB database with SMILE code of
 c1[nH]cc2c1c1ccncc1c1ccc3cc([nH]c3c21)-c1nccc2nsnc12, HPC, 20131227, S
 huo Dai, Gaussian09
 ----------------------------------------------------------------------
 Charge =  0 Multiplicity = 1

                         Standard orientation:
 ---------------------------------------------------------------------
 Center     Atomic      Atomic             Coordinates (Angstroms)
 Number     Number       Type             X           Y           Z
 ---------------------------------------------------------------------
      1          6           0       -4.017338    2.839210    0.000064
      2          7           0       -2.797598    3.458075   -0.000204
      3          1           0       -2.661628    4.457374   -0.000305
      4          6           0       -1.777599    2.536611   -0.000180
      5          6           0       -2.357541    1.271400   -0.000060
      6          6           0       -3.782183    1.471317    0.000062
      7          6           0       -4.691060    0.350637    0.000090
      8          6           0       -6.090862    0.494395    0.000206
      9          6           0       -6.894180   -0.632819    0.000154
     10          7           0       -6.402861   -1.887771   -0.000050
     11          6           0       -5.079644   -2.025294   -0.000146
     12          6           0       -4.145893   -0.961558   -0.000039
     13          6           0       -2.689434   -1.182256   -0.000021
     14          6           0       -2.153292   -2.507281    0.000051
     15          6           0       -0.800144   -2.764762   -0.000058
     16          6           0        0.102102   -1.678865   -0.000129
     17          6           0        1.521892   -1.581678   -0.000107
     18          6           0        1.836157   -0.229252   -0.000026
     19          7           0        0.656241    0.497595    0.000112
     20          1           0        0.667994    1.504210    0.000161
     21          6           0       -0.418999   -0.354517    0.000052
     22          6           0       -1.805328   -0.069240   -0.000005
     23          6           0        3.093867    0.487379    0.000049
     24          7           0        3.035820    1.815680    0.000026
     25          6           0        4.179932    2.561834    0.000026
     26          6           0        5.458332    2.057354    0.000064
     27          6           0        5.580058    0.641855    0.000039
     28          7           0        6.711941   -0.076710    0.000034
     29         16           0        6.257658   -1.657087    0.000006
     30          7           0        4.622975   -1.485144   -0.000017
     31          6           0        4.381975   -0.170649    0.000006
     32          1           0       -4.933878    3.408756   -0.000074
     33          1           0       -0.755651    2.878887   -0.000326
     34          1           0       -6.542748    1.481709    0.000332
     35          1           0       -7.978027   -0.542852    0.000285
     36          1           0       -4.734934   -3.054200   -0.000329
     37          1           0       -2.829377   -3.352311    0.000236
     38          1           0       -0.434094   -3.787011   -0.000010
     39          1           0        2.236584   -2.389977   -0.000070
     40          1           0        4.019955    3.636715    0.000035
     41          1           0        6.332736    2.697088    0.000100
 ---------------------------------------------------------------------

 SCF Done:  E(RB3LYP) =  -1572.34323715     A.U. after    1 cycles

 The electronic state is 1-A.
 Alpha  occ. eigenvalues --  -88.99605 -14.41601 -14.39678 -14.39070 -14.38996
 Alpha  occ. eigenvalues --  -14.35937 -14.33106 -10.27144 -10.26637 -10.26584
 Alpha  occ. eigenvalues --  -10.24820 -10.24057 -10.23702 -10.23502 -10.23467
 Alpha  occ. eigenvalues --  -10.22365 -10.22095 -10.22048 -10.21931 -10.21626
 Alpha  occ. eigenvalues --  -10.21396 -10.21087 -10.20702 -10.20200 -10.19950
 Alpha  occ. eigenvalues --  -10.19949 -10.19836 -10.19710 -10.19365  -8.04930
 Alpha  occ. eigenvalues --   -6.01485  -6.00901  -6.00688  -1.04142  -1.00677
 Alpha  occ. eigenvalues --   -1.00017  -0.96145  -0.94100  -0.91335  -0.87363
 Alpha  occ. eigenvalues --   -0.83667  -0.81857  -0.81006  -0.79582  -0.79230
 Alpha  occ. eigenvalues --   -0.76635  -0.75358  -0.74080  -0.72737  -0.68812
 Alpha  occ. eigenvalues --   -0.66710  -0.65152  -0.64731  -0.63537  -0.62623
 Alpha  occ. eigenvalues --   -0.60476  -0.59664  -0.58869  -0.56793  -0.55943
 Alpha  occ. eigenvalues --   -0.54137  -0.53501  -0.52525  -0.50117  -0.49588
 Alpha  occ. eigenvalues --   -0.48995  -0.48482  -0.47623  -0.47081  -0.45602
 Alpha  occ. eigenvalues --   -0.45417  -0.44842  -0.44813  -0.43907  -0.43637
 Alpha  occ. eigenvalues --   -0.43589  -0.42237  -0.41653  -0.41418  -0.40613
 Alpha  occ. eigenvalues --   -0.40219  -0.39971  -0.39156  -0.37711  -0.36393
 Alpha  occ. eigenvalues --   -0.36290  -0.35061  -0.34746  -0.34077  -0.32330
 Alpha  occ. eigenvalues --   -0.32273  -0.30434  -0.30068  -0.28968  -0.28740
 Alpha  occ. eigenvalues --   -0.27205  -0.25534  -0.25186  -0.23161  -0.21894
 Alpha  occ. eigenvalues --   -0.20500
 Alpha virt. eigenvalues --   -0.11635  -0.05708  -0.04217  -0.02752  -0.02553
 Alpha virt. eigenvalues --   -0.02385  -0.01765  -0.01690  -0.00829  -0.00081
 Alpha virt. eigenvalues --    0.00426   0.00817   0.01455   0.01618   0.01987

 Mulliken atomic charges:
              1
     1  C    0.169918
     2  N   -0.094675
     3  H    0.305813
     4  C   -0.052404
     5  C   -0.188890
     6  C   -0.043302
     7  C    0.639763
     8  C   -0.146498
     9  C   -0.341803
    10  N   -0.072726
    11  C   -0.172272
    12  C   -0.369980
    13  C    0.625412
    14  C   -1.160363
    15  C   -0.616180
    16  C    0.673513
    17  C   -0.067304
    18  C   -0.241586
    19  N   -0.059701
    20  H    0.503763
    21  C   -0.195121
    22  C    0.008860
    23  C   -0.219549
    24  N   -0.164829
    25  C    0.142005
    26  C   -0.278216
    27  C   -0.018368
    28  N   -0.394252
    29  S    0.870070
    30  N   -0.494476
    31  C    0.048391
    32  H    0.180951
    33  H    0.178793
    34  H    0.072908
    35  H    0.145543
    36  H    0.247426
    37  H   -0.071414
    38  H    0.128662
    39  H    0.198880
    40  H    0.149625
    41  H    0.173612
 Sum of Mulliken atomic charges =  -0.00000

 Dipole moment (field-independent basis, Debye):
    X=              2.0318    Y=              5.3922    Z=             -0.0000  Tot=              5.7623
 Quadrupole moment (field-independent basis, Debye-Ang):
   XX=           -184.2395   YY=           -145.0020   ZZ=           -180.0165
   XY=            -23.6360   XZ=             -0.0002   YZ=             -0.0023

  Exact polarizability: 665.440  29.662 370.415  -0.012   0.002 146.183
 Approx polarizability: 966.079  78.475 726.728  -0.010   0.012 240.708

                     1                      2                      3
                     A                      A                      A
 Frequencies --    16.0601                23.2777                53.7421
 Red. masses --     6.2668                 9.1454                 7.9801
 Frc consts  --     0.0010                 0.0029                 0.0136
 IR Inten    --     0.3762                 0.2595                 0.5529

                     4                      5                      6
                     A                      A                      A
 Frequencies --    65.3453                69.1959               112.0067
 Red. masses --     6.0165                 4.4244                 5.4094
 Frc consts  --     0.0151                 0.0125                 0.0400
 IR Inten    --     0.2912                 0.8012                 1.2056

                     7                      8                      9
                     A                      A                      A
 Frequencies --   128.2285               132.9783               166.5702
 Red. masses --    10.9011                 5.6987                 4.3778
 Frc consts  --     0.1056                 0.0594                 0.0716
 IR Inten    --     0.2576                 0.0577                 0.6638

                    10                     11                     12
                     A                      A                      A
 Frequencies --   197.8791               205.2637               221.3093
 Red. masses --     7.4024                 8.2771                 4.8045
 Frc consts  --     0.1708                 0.2055                 0.1386
 IR Inten    --     0.8046                 0.0515                 0.6017

                    13                     14                     15
                     A                      A                      A
 Frequencies --   256.7432               260.9070               309.0849
 Red. masses --     5.1946                 5.8602                 5.7199
 Frc consts  --     0.2017                 0.2350                 0.3220
 IR Inten    --     0.4414                 0.8430                 6.6493

                    16                     17                     18
                     A                      A                      A
 Frequencies --   315.2909               341.3511               351.8704
 Red. masses --     8.1928                 5.2986                 4.3940
 Frc consts  --     0.4799                 0.3638                 0.3205
 IR Inten    --     0.0234                 0.0091                 0.9699

                    19                     20                     21
                     A                      A                      A
 Frequencies --   369.8759               417.8056               433.3007
 Red. masses --     6.8328                 6.7376                 7.8394
 Frc consts  --     0.5508                 0.6930                 0.8672
 IR Inten    --     8.4629                 0.8754                 0.6777

                    22                     23                     24
                     A                      A                      A
 Frequencies --   452.7546               459.5529               480.0011
 Red. masses --     6.9149                 1.9780                 2.0728
 Frc consts  --     0.8351                 0.2461                 0.2814
 IR Inten    --     3.6503                17.7027                 1.7775

                    25                     26                     27
                     A                      A                      A
 Frequencies --   481.3567               495.0897               533.0467
 Red. masses --     7.0763                 4.4067                 1.7283
 Frc consts  --     0.9660                 0.6364                 0.2893
 IR Inten    --    18.6402                 1.5992                95.8299

                    28                     29                     30
                     A                      A                      A
 Frequencies --   537.7416               555.6126               565.2673
 Red. masses --     3.8379                 7.3388                 5.4001
 Frc consts  --     0.6539                 1.3348                 1.0166
 IR Inten    --    15.6156                 3.5093                16.8639

                    31                     32                     33
                     A                      A                      A
 Frequencies --   585.8408               596.5436               613.5897
 Red. masses --     3.8511                 5.8961                 3.3809
 Frc consts  --     0.7787                 1.2362                 0.7500
 IR Inten    --     9.5491                 0.0178                 1.3095

                    34                     35                     36
                     A                      A                      A
 Frequencies --   614.8809               633.2590               635.8090
 Red. masses --     6.4386                 1.8201                 7.6887
 Frc consts  --     1.4343                 0.4300                 1.8313
 IR Inten    --     4.4251                 0.4154                16.7578

                    37                     38                     39
                     A                      A                      A
 Frequencies --   644.5194               657.4675               669.4092
 Red. masses --     1.5408                 3.4268                 5.8133
 Frc consts  --     0.3771                 0.8727                 1.5348
 IR Inten    --     9.4356                21.7715                 0.6606

                    40                     41                     42
                     A                      A                      A
 Frequencies --   697.6227               698.7204               735.7877
 Red. masses --     4.4909                 7.0121                 4.0862
 Frc consts  --     1.2877                 2.0170                 1.3034
 IR Inten    --     5.7612                 9.2679                 0.3609

                    43                     44                     45
                     A                      A                      A
 Frequencies --   745.1104               747.3027               773.1555
 Red. masses --     1.6929                 9.3267                 7.0389
 Frc consts  --     0.5538                 3.0688                 2.4791
 IR Inten    --    27.2071                11.6655                11.9606

                    46                     47                     48
                     A                      A                      A
 Frequencies --   773.1678               786.6184               800.2804
 Red. masses --     3.6984                 2.7838                 2.4313
 Frc consts  --     1.3026                 1.0149                 0.9174
 IR Inten    --    18.7802                 5.3476                 5.2341

                    49                     50                     51
                     A                      A                      A
 Frequencies --   822.0565               823.4946               828.0603
 Red. masses --     1.5719                 2.9117                11.4105
 Frc consts  --     0.6259                 1.1634                 4.6098
 IR Inten    --    43.1354                 1.2615                22.6357

                    52                     53                     54
                     A                      A                      A
 Frequencies --   832.3806               844.4546               859.3026
 Red. masses --    12.8671                 1.6241                 1.6045
 Frc consts  --     5.2526                 0.6824                 0.6981
 IR Inten    --    55.2298                20.6854                34.8493

                    55                     56                     57
                     A                      A                      A
 Frequencies --   865.6414               890.3316               911.7180
 Red. masses --     8.9541                 6.5028                 4.4474
 Frc consts  --     3.9532                 3.0371                 2.1781
 IR Inten    --     6.7012                10.0043                 7.9926

                    58                     59                     60
                     A                      A                      A
 Frequencies --   927.4502               934.8414               942.4013
 Red. masses --     6.7045                 1.4843                 6.0259
 Frc consts  --     3.3978                 0.7643                 3.1532
 IR Inten    --     5.3995                 1.9579                11.9166

                    61                     62                     63
                     A                      A                      A
 Frequencies --   958.4329               982.2126               982.9571
 Red. masses --     1.2985                 1.3502                 1.4216
 Frc consts  --     0.7028                 0.7675                 0.8093
 IR Inten    --     0.1796                 0.3081                 0.0016

                    64                     65                     66
                     A                      A                      A
 Frequencies --  1033.9635              1038.9591              1069.1037
 Red. masses --     3.3344                 5.8317                 3.2050
 Frc consts  --     2.1003                 3.7089                 2.1583
 IR Inten    --     7.1477                 6.8167                32.1158

                    67                     68                     69
                     A                      A                      A
 Frequencies --  1083.4827              1102.2371              1113.1083
 Red. masses --     1.9830                 2.2865                 2.0058
 Frc consts  --     1.3716                 1.6367                 1.4642
 IR Inten    --    28.9529                18.8443                31.2818

                    70                     71                     72
                     A                      A                      A
 Frequencies --  1145.2090              1150.6030              1171.1200
 Red. masses --     2.0176                 1.8669                 1.6474
 Frc consts  --     1.5590                 1.4562                 1.3312
 IR Inten    --    83.8978                49.8483                 0.2361

                    73                     74                     75
                     A                      A                      A
 Frequencies --  1198.3566              1218.6588              1226.5022
 Red. masses --     1.6465                 1.7457                 1.6689
 Frc consts  --     1.3931                 1.5275                 1.4791
 IR Inten    --     1.1220                18.7337                 1.1402

                    76                     77                     78
                     A                      A                      A
 Frequencies --  1245.2638              1255.7724              1284.0854
 Red. masses --     2.1495                 2.2331                 3.5936
 Frc consts  --     1.9638                 2.0748                 3.4911
 IR Inten    --     2.3026                17.0478                72.3575

                    79                     80                     81
                     A                      A                      A
 Frequencies --  1303.9547              1306.7460              1327.6047
 Red. masses --     2.2218                 2.6200                 3.3807
 Frc consts  --     2.2258                 2.6359                 3.5107
 IR Inten    --    18.3011                21.1776                79.4008

                    82                     83                     84
                     A                      A                      A
 Frequencies --  1345.0814              1356.1907              1360.0973
 Red. masses --     4.0403                 3.2710                 7.7664
 Frc consts  --     4.3069                 3.5447                 8.4646
 IR Inten    --    35.1121                 7.4037               112.2889

                    85                     86                     87
                     A                      A                      A
 Frequencies --  1365.4021              1380.5134              1401.0600
 Red. masses --     5.7930                 4.4964                 3.0240
 Frc consts  --     6.3632                 5.0489                 3.4974
 IR Inten    --     0.6408                22.2730                18.0570

                    88                     89                     90
                     A                      A                      A
 Frequencies --  1416.7338              1422.1176              1438.6968
 Red. masses --     3.2368                 5.0545                 3.3816
 Frc consts  --     3.8277                 6.0229                 4.1239
 IR Inten    --     7.8729                23.4516                 1.5671

                    91                     92                     93
                     A                      A                      A
 Frequencies --  1447.0981              1471.2087              1487.4706
 Red. masses --     2.9369                 3.4407                 2.7123
 Frc consts  --     3.6235                 4.3878                 3.5357
 IR Inten    --    14.1345                66.0366                 3.6757

                    94                     95                     96
                     A                      A                      A
 Frequencies --  1493.3490              1508.6562              1521.9589
 Red. masses --     5.9298                 2.6218                 3.4008
 Frc consts  --     7.7913                 3.5159                 4.6413
 IR Inten    --   226.1214                41.7542                88.1296

                    97                     98                     99
                     A                      A                      A
 Frequencies --  1544.4808              1549.6197              1574.4024
 Red. masses --     4.3475                 4.8405                 5.8109
 Frc consts  --     6.1102                 6.8485                 8.4864
 IR Inten    --    40.3603               102.6397               299.8044

                   100                    101                    102
                     A                      A                      A
 Frequencies --  1589.6408              1602.1013              1612.7945
 Red. masses --     5.7455                 5.4194                 7.3713
 Frc consts  --     8.5542                 8.1956                11.2967
 IR Inten    --    85.0184                55.5997                56.0418

                   103                    104                    105
                     A                      A                      A
 Frequencies --  1626.1922              1642.0307              1653.4138
 Red. masses --     6.3823                 6.2949                 6.8648
 Frc consts  --     9.9442                10.0000                11.0572
 IR Inten    --     0.6732                61.3205                 9.9717

                   106                    107                    108
                     A                      A                      A
 Frequencies --  3172.3257              3186.2656              3190.8742
 Red. masses --     1.0877                 1.0898                 1.0889
 Frc consts  --     6.4492                 6.5186                 6.5320
 IR Inten    --    15.4756                31.9581                22.0362

                   109                    110                    111
                     A                      A                      A
 Frequencies --  3196.4290              3198.3542              3231.8828
 Red. masses --     1.0915                 1.0941                 1.0948
 Frc consts  --     6.5703                 6.5944                 6.7376
 IR Inten    --    13.0885                16.6577                 3.8084

                   112                    113                    114
                     A                      A                      A
 Frequencies --  3235.5112              3280.9337              3288.5491
 Red. masses --     1.0898                 1.0961                 1.0964
 Frc consts  --     6.7220                 6.9519                 6.9861
 IR Inten    --    17.2351                 0.1552                 0.4941

                   115                    116                    117
                     A                      A                      A
 Frequencies --  3289.8287              3673.9698              3696.9234
 Red. masses --     1.0961                 1.0812                 1.0791
 Frc consts  --     6.9893                 8.5983                 8.6893
 IR Inten    --     1.1020               116.0317                49.0941

 - Thermochemistry -
 -------------------
 Temperature   298.150 Kelvin.  Pressure   1.00000 Atm.
 Atom     1 has atomic number  6 and mass  12.00000

 Molecular mass:   392.08442 amu.
 Principal axes and moments of inertia in atomic units:
                           1         2         3
     Eigenvalues --  4173.07828********************
           X            1.00000   0.00272  -0.00000
           Y           -0.00272   1.00000  -0.00000
           Z            0.00000   0.00000   1.00000
 This molecule is an asymmetric top.
 Rotational symmetry number  1.
 Warning -- assumption of classical behavior for rotation
           may cause significant error
 Rotational temperatures (Kelvin)      0.02076     0.00344     0.00295
 Rotational constants (GHZ):           0.43247     0.07175     0.06154
 Zero-point vibrational energy     786845.0 (Joules/Mol)
                                  188.06048 (Kcal/Mol)
 Warning -- explicit consideration of  34 degrees of freedom as
           vibrations may cause significant error
 Vibrational temperatures:     23.11    33.49    77.32    94.02    99.56
          (Kelvin)            161.15   184.49   191.33   239.66   284.70
                              295.33   318.41   369.40   375.39   444.70
                              453.63   491.13   506.26   532.17   601.13
                              623.42   651.41   661.19   690.61   692.56
                              712.32   766.93   773.69   799.40   813.29
                              842.89   858.29   882.82   884.68   911.12
                              914.79   927.32   945.95   963.13  1003.72
                             1005.30  1058.63  1072.05  1075.20  1112.40
                             1112.41  1131.77  1151.42  1182.75  1184.82
                             1191.39  1197.61  1214.98  1236.34  1245.46
                             1280.99  1311.76  1334.39  1345.03  1355.90
                             1378.97  1413.18  1414.25  1487.64  1494.83
                             1538.20  1558.89  1585.87  1601.51  1647.70
                             1655.46  1684.98  1724.17  1753.38  1764.66
                             1791.65  1806.77  1847.51  1876.10  1880.11
                             1910.12  1935.27  1951.25  1956.87  1964.51
                             1986.25  2015.81  2038.36  2046.11  2069.96
                             2082.05  2116.74  2140.14  2148.59  2170.62
                             2189.76  2222.16  2229.55  2265.21  2287.14
                             2305.06  2320.45  2339.72  2362.51  2378.89
                             4564.26  4584.32  4590.95  4598.94  4601.71
                             4649.95  4655.17  4720.53  4731.48  4733.32
                             5286.02  5319.04

 Zero-point correction=                           0.299693 (Hartree/Particle)
 Thermal correction to Energy=                    0.319952
 Thermal correction to Enthalpy=                  0.320896
 Thermal correction to Gibbs Free Energy=         0.249218
 Sum of electronic and zero-point Energies=          -1572.043544
 Sum of electronic and thermal Energies=             -1572.023285
 Sum of electronic and thermal Enthalpies=           -1572.022341
 Sum of electronic and thermal Free Energies=        -1572.094019

                     E (Thermal)             CV                S
                      KCal/Mol        Cal/Mol-Kelvin    Cal/Mol-Kelvin
 Total                  200.773             83.536            150.859
 Electronic               0.000              0.000              0.000
 Translational            0.889              2.981             43.791
 Rotational               0.889              2.981             36.374
 Vibrational            198.996             77.574             70.694
 Vibration     1          0.593              1.986              7.070
 Vibration     2          0.593              1.985              6.333
 Vibration     3          0.596              1.976              4.675
 Vibration     4          0.597              1.971              4.289
 Vibration     5          0.598              1.969              4.176
 Vibration     6          0.607              1.940              3.234
 Vibration     7          0.611              1.925              2.972
 Vibration     8          0.613              1.920              2.903
 Vibration     9          0.624              1.884              2.474
 Vibration    10          0.637              1.843              2.153
 Vibration    11          0.640              1.832              2.085
 Vibration    12          0.648              1.809              1.948
 Vibration    13          0.666              1.751              1.684
 Vibration    14          0.669              1.744              1.656
 Vibration    15          0.698              1.656              1.367
 Vibration    16          0.703              1.644              1.334
 Vibration    17          0.721              1.593              1.206
 Vibration    18          0.728              1.571              1.158
 Vibration    19          0.742              1.534              1.080
 Vibration    20          0.781              1.432              0.899
 Vibration    21          0.794              1.398              0.848
 Vibration    22          0.811              1.355              0.787
 Vibration    23          0.817              1.340              0.767
 Vibration    24          0.836              1.294              0.710
 Vibration    25          0.838              1.291              0.706
 Vibration    26          0.851              1.261              0.671
 Vibration    27          0.888              1.177              0.580
 Vibration    28          0.893              1.167              0.570
 Vibration    29          0.911              1.127              0.533
 Vibration    30          0.921              1.106              0.513
 Vibration    31          0.943              1.062              0.475
 Vibration    32          0.954              1.039              0.456
 Vibration    33          0.973              1.003              0.427
 Vibration    34          0.974              1.000              0.425

 Optimization completed.
    -- Stationary point found.

 1\1\GINC-N187\Freq\RB3LYP\6-31++G(d,p)\C22H12N6S1\SHUO\30-Dec-2013\0\\
 #N Geom=AllCheck Guess=TCheck SCRF=Check Test GenChk RB3LYP/6-31++G(d,
 p) Freq\\Geom opt of No.9 candidate from the CEPDB database with SMILE
  code of c1[nH]cc2c1c1ccncc1c1ccc3cc([nH]c3c21)-c1nccc2nsnc12, HPC, 20
 131227, Shuo Dai, Gaussian09\\0,1\C,0.1218555605,2.5650140121,-0.70059
 15558\N,1.4487549211,2.8566824621,-0.8587906567\H,1.809943673,3.761968
 5136,-1.1178041797\C,2.2284884033,1.750639728,-0.6175893956\C,1.374999
 6823,0.7010318671,-0.2905244592\C,0.0367270987,1.2260076469,-0.3452825

 Normal termination of Gaussian 09 at Mon Dec 30 07:52:27 2013.
