 Gaussian 09, Revision C.01,
 Gaussian 09:  EM64L-G09RevC.01 23-Sep-2011

 --------------------------------------------
 #B3LYP/6-31++G(d,p) opt scf=direct freq test
 --------------------------------------------

 Geom opt of No.17 candidate from the CEPDB database with SMILE code of
  C1cccc1-c1ncc(-c2sc(-c3scc4cc[SiH2]c34)c3cc[SiH2]c23)c2nsnc12, HPC, 2
 0131227, Shuo Dai, Gaussian09
 ----------------------------------------------------------------------
 Charge =  0 Multiplicity = 3

 SCF Done:  E(UB3LYP) =  -2786.17825397     A.U. after   33 cycles
 SCF Done:  E(UB3LYP) =  -2786.22131367     A.U. after   28 cycles
 SCF Done:  E(UB3LYP) =  -2786.25670534     A.U. after   38 cycles
 SCF Done:  E(UB3LYP) =  -2786.27000920     A.U. after   28 cycles
 SCF Done:  E(UB3LYP) =  -2786.27612554     A.U. after   28 cycles
 SCF Done:  E(UB3LYP) =  -2786.27953735     A.U. after   26 cycles
 SCF Done:  E(UB3LYP) =  -2786.28178900     A.U. after   26 cycles
 SCF Done:  E(UB3LYP) =  -2786.28350393     A.U. after   26 cycles
 SCF Done:  E(UB3LYP) =  -2786.28414320     A.U. after   25 cycles
 SCF Done:  E(UB3LYP) =  -2786.28441985     A.U. after   19 cycles
 SCF Done:  E(UB3LYP) =  -2786.28505933     A.U. after   17 cycles
 SCF Done:  E(UB3LYP) =  -2786.28509433     A.U. after   17 cycles
 SCF Done:  E(UB3LYP) =  -2786.28511299     A.U. after   15 cycles
 SCF Done:  E(UB3LYP) =  -2786.28512964     A.U. after   15 cycles
 SCF Done:  E(UB3LYP) =  -2786.28513763     A.U. after   14 cycles
 SCF Done:  E(UB3LYP) =  -2786.28514128     A.U. after   16 cycles
 SCF Done:  E(UB3LYP) =  -2786.28514269     A.U. after   13 cycles
 SCF Done:  E(UB3LYP) =  -2786.28514334     A.U. after   13 cycles
 SCF Done:  E(UB3LYP) =  -2786.28514331     A.U. after   12 cycles
 Optimization completed.
    -- Stationary point found.
 Normal termination of Gaussian 09 at Sun Dec 29 07:11:11 2013.

 ----------------------------------------------------------------------
 #N Geom=AllCheck Guess=TCheck SCRF=Check Test GenChk UB3LYP/6-31++G(d,
 p) Freq
 ----------------------------------------------------------------------

 Geom opt of No.17 candidate from the CEPDB database with SMILE code of
  C1cccc1-c1ncc(-c2sc(-c3scc4cc[SiH2]c34)c3cc[SiH2]c23)c2nsnc12, HPC, 2
 0131227, Shuo Dai, Gaussian09
 ----------------------------------------------------------------------
 Charge =  0 Multiplicity = 3

                         Standard orientation:
 ---------------------------------------------------------------------
 Center     Atomic      Atomic             Coordinates (Angstroms)
 Number     Number       Type             X           Y           Z
 ---------------------------------------------------------------------
      1          6           0        6.972209   -0.521629   -0.388907
      2          6           0        8.100611   -1.511343   -0.401782
      3          6           0        7.605625   -2.762959   -0.229628
      4          6           0        6.161697   -2.691527   -0.094893
      5          6           0        5.748801   -1.388145   -0.183177
      6          6           0        4.370951   -0.942758   -0.092421
      7          7           0        3.415497   -1.851988    0.089401
      8          6           0        2.113979   -1.501529    0.180375
      9          6           0        1.581103   -0.215153    0.090582
     10          6           0        0.149478    0.050178    0.183436
     11         16           0       -0.963209   -1.301772   -0.007886
     12          6           0       -2.360998   -0.298785    0.314362
     13          6           0       -3.698831   -0.883670    0.347288
     14         16           0       -4.040474   -2.236593    1.420479
     15          6           0       -5.687754   -2.325095    0.888080
     16          6           0       -5.964400   -1.367983   -0.051582
     17          6           0       -7.261191   -1.111891   -0.800132
     18          6           0       -7.024847   -0.023898   -1.819368
     19         14           0       -5.282332    0.631867   -1.762450
     20          1           0       -4.492200    0.428907   -3.008174
     21          1           0       -5.193363    2.081575   -1.428534
     22          6           0       -4.828041   -0.538039   -0.369207
     23          6           0       -1.971105    1.005586    0.537035
     24          6           0       -2.848197    2.168507    0.963827
     25          6           0       -1.962322    3.340283    1.293109
     26         14           0       -0.179443    3.030898    0.839836
     27          1           0        0.221428    3.887250   -0.306005
     28          1           0        0.767784    3.257982    1.962498
     29          6           0       -0.550213    1.221708    0.444503
     30          6           0        2.572404    0.802628   -0.095118
     31          7           0        2.358875    2.117615   -0.209404
     32         16           0        3.826890    2.829021   -0.410290
     33          7           0        4.782882    1.496299   -0.364467
     34          6           0        3.975506    0.444244   -0.187278
     35          1           0        6.919150    0.056144   -1.321331
     36          1           0        7.088705    0.227416    0.405682
     37          1           0        9.141243   -1.237745   -0.530701
     38          1           0        8.180417   -3.681584   -0.194932
     39          1           0        5.501356   -3.536870    0.053904
     40          1           0        1.442823   -2.339695    0.350291
     41          1           0       -6.345848   -3.082081    1.295494
     42          1           0       -8.065144   -0.821319   -0.102917
     43          1           0       -7.622152   -2.033207   -1.285611
     44          1           0       -7.849713    0.276955   -2.459873
     45          1           0       -3.478982    1.875444    1.818748
     46          1           0       -3.562804    2.440458    0.170345
     47          1           0       -2.426711    4.245276    1.677548
 ---------------------------------------------------------------------

 SCF Done:  E(UB3LYP) =  -2786.28514331     A.U. after    2 cycles

 The electronic state is 3-A.
 Alpha  occ. eigenvalues --  -88.99475 -88.91976 -88.91715 -66.13740 -66.12932
 Alpha  occ. eigenvalues --  -14.39420 -14.38890 -14.34740 -10.26430 -10.26169
 Alpha  occ. eigenvalues --  -10.25823 -10.24066 -10.24029 -10.23919 -10.23353
 Alpha  occ. eigenvalues --  -10.23118 -10.22089 -10.21204 -10.20994 -10.20905
 Alpha  occ. eigenvalues --  -10.20769 -10.20498 -10.20451 -10.20401 -10.20334
 Alpha  occ. eigenvalues --  -10.20179 -10.20124 -10.19073 -10.19059 -10.19013
 Alpha  occ. eigenvalues --   -8.04759  -7.97848  -7.97598  -6.01322  -6.00740
 Alpha  occ. eigenvalues --   -6.00510  -5.94272  -5.94037  -5.93889  -5.93652
 Alpha  occ. eigenvalues --   -5.93581  -5.93301  -5.28424  -5.27476  -3.64330
 Alpha  occ. eigenvalues --   -3.64265  -3.64244  -3.63402  -3.63321  -3.63296
 Alpha  occ. eigenvalues --   -1.03972  -0.95782  -0.91437  -0.90010  -0.88166
 Alpha  occ. eigenvalues --   -0.87344  -0.82624  -0.80582  -0.80137  -0.78820
 Alpha  occ. eigenvalues --   -0.76284  -0.73227  -0.71983  -0.71891  -0.70941
 Alpha  occ. eigenvalues --   -0.69715  -0.67629  -0.64455  -0.63522  -0.63241
 Alpha  occ. eigenvalues --   -0.61114  -0.59089  -0.56712  -0.55925  -0.55193
 Alpha  occ. eigenvalues --   -0.54515  -0.53941  -0.53118  -0.52844  -0.51144
 Alpha  occ. eigenvalues --   -0.50093  -0.48670  -0.47927  -0.47413  -0.45923
 Alpha  occ. eigenvalues --   -0.45103  -0.44717  -0.44512  -0.44173  -0.41920
 Alpha  occ. eigenvalues --   -0.41634  -0.41513  -0.40831  -0.40430  -0.40053
 Alpha  occ. eigenvalues --   -0.39622  -0.39537  -0.38398  -0.38312  -0.37695
 Alpha  occ. eigenvalues --   -0.37609  -0.37115  -0.36118  -0.35712  -0.35227
 Alpha  occ. eigenvalues --   -0.35085  -0.34896  -0.34392  -0.34253  -0.33382
 Alpha  occ. eigenvalues --   -0.32029  -0.31791  -0.31510  -0.29965  -0.29729
 Alpha  occ. eigenvalues --   -0.28618  -0.27295  -0.26041  -0.25469  -0.25314
 Alpha  occ. eigenvalues --   -0.23524  -0.22061  -0.21070  -0.19857
 Alpha virt. eigenvalues --   -0.11607  -0.06246  -0.04663  -0.03197  -0.01772
 Alpha virt. eigenvalues --   -0.01310  -0.01057  -0.00681  -0.00305  -0.00164
 Alpha virt. eigenvalues --    0.00350   0.00722   0.01018   0.01247   0.01381

  Beta  occ. eigenvalues --  -88.99475 -88.91977 -88.91715 -66.13763 -66.12954
  Beta  occ. eigenvalues --  -14.39417 -14.38895 -14.34746 -10.26426 -10.26171
  Beta  occ. eigenvalues --  -10.25815 -10.24048 -10.24010 -10.23910 -10.23370
  Beta  occ. eigenvalues --  -10.23126 -10.22102 -10.21273 -10.20986 -10.20891
  Beta  occ. eigenvalues --  -10.20773 -10.20493 -10.20395 -10.20334 -10.20248
  Beta  occ. eigenvalues --  -10.20126 -10.19204 -10.19084 -10.19071 -10.17771
  Beta  occ. eigenvalues --   -8.04759  -7.97849  -7.97598  -6.01322  -6.00741
  Beta  occ. eigenvalues --   -6.00511  -5.94273  -5.94037  -5.93889  -5.93652
  Beta  occ. eigenvalues --   -5.93582  -5.93301  -5.28450  -5.27502  -3.64364
  Beta  occ. eigenvalues --   -3.64290  -3.64275  -3.63436  -3.63352  -3.63321
  Beta  occ. eigenvalues --   -1.03972  -0.95782  -0.91435  -0.89988  -0.88127
  Beta  occ. eigenvalues --   -0.87339  -0.82563  -0.80013  -0.79849  -0.78360
  Beta  occ. eigenvalues --   -0.76170  -0.73192  -0.71923  -0.71574  -0.70280
  Beta  occ. eigenvalues --   -0.69191  -0.67570  -0.64360  -0.63275  -0.61911
  Beta  occ. eigenvalues --   -0.59906  -0.58851  -0.56659  -0.55541  -0.55062
  Beta  occ. eigenvalues --   -0.54021  -0.53492  -0.53059  -0.52783  -0.51103
  Beta  occ. eigenvalues --   -0.50028  -0.48447  -0.47695  -0.47365  -0.45821
  Beta  occ. eigenvalues --   -0.44692  -0.44328  -0.43962  -0.43433  -0.41829
  Beta  occ. eigenvalues --   -0.41570  -0.41044  -0.40487  -0.40316  -0.39900
  Beta  occ. eigenvalues --   -0.39546  -0.39385  -0.38277  -0.38131  -0.37657
  Beta  occ. eigenvalues --   -0.37500  -0.37104  -0.35942  -0.35321  -0.35025
  Beta  occ. eigenvalues --   -0.34766  -0.34598  -0.33868  -0.33495  -0.33010
  Beta  occ. eigenvalues --   -0.31903  -0.31766  -0.31190  -0.29778  -0.29345
  Beta  occ. eigenvalues --   -0.28563  -0.27299  -0.25990  -0.25332  -0.25207
  Beta  occ. eigenvalues --   -0.23269  -0.20114
  Beta virt. eigenvalues --   -0.11632  -0.09014  -0.07923  -0.05738  -0.04449
  Beta virt. eigenvalues --   -0.02918  -0.01764  -0.01248  -0.01010  -0.00667
  Beta virt. eigenvalues --   -0.00272  -0.00060   0.00387   0.00765   0.01077

 Mulliken atomic charges:
              1
     1  C   -0.833770
     2  C   -0.097520
     3  C   -0.370526
     4  C   -0.410524
     5  C    0.617082
     6  C   -0.849822
     7  N   -0.130562
     8  C    0.008700
     9  C   -0.518735
    10  C   -0.421103
    11  S   -0.069930
    12  C   -0.563297
    13  C   -0.279411
    14  S    0.159209
    15  C    0.087378
    16  C    0.816030
    17  C   -0.859470
    18  C   -0.168346
    19  Si   0.955650
    20  H   -0.082565
    21  H   -0.118459
    22  C   -1.128813
    23  C    0.547586
    24  C   -0.464942
    25  C   -0.431892
    26  Si   1.171723
    27  H   -0.130533
    28  H   -0.127716
    29  C    0.006024
    30  C    0.831771
    31  N   -0.475432
    32  S    0.979530
    33  N   -0.458526
    34  C    0.747014
    35  H    0.192967
    36  H    0.193469
    37  H    0.131675
    38  H    0.106988
    39  H    0.163070
    40  H    0.161163
    41  H    0.162109
    42  H    0.174739
    43  H    0.171023
    44  H    0.144642
    45  H    0.183780
    46  H    0.126802
    47  H    0.151769
 Sum of Mulliken atomic charges =  -0.00000

 Dipole moment (field-independent basis, Debye):
    X=             -0.5875    Y=              0.4810    Z=             -0.2822  Tot=              0.8100
 Quadrupole moment (field-independent basis, Debye-Ang):
   XX=           -167.7593   YY=           -206.0195   ZZ=           -214.6451
   XY=              5.9878   XZ=             -0.9045   YZ=             -1.0209

  Exact polarizability: 795.958 -44.322 414.105 -12.799 -15.004 241.448
 Approx polarizability:1120.580 -84.072 760.833 -29.643 -41.008 403.894

                     1                      2                      3
                     A                      A                      A
 Frequencies --    13.9742                18.5910                30.6526
 Red. masses --     8.4370                 7.2642                 6.1158
 Frc consts  --     0.0010                 0.0015                 0.0034
 IR Inten    --     0.0603                 0.2802                 0.5084

                     4                      5                      6
                     A                      A                      A
 Frequencies --    41.9673                47.4994                55.9354
 Red. masses --     6.9467                 4.2225                 4.2926
 Frc consts  --     0.0072                 0.0056                 0.0079
 IR Inten    --     0.1995                 0.0329                 0.0696

                     7                      8                      9
                     A                      A                      A
 Frequencies --    75.0394                86.4822               113.7303
 Red. masses --     5.3214                 5.4727                 3.8620
 Frc consts  --     0.0177                 0.0241                 0.0294
 IR Inten    --     0.3950                 0.2078                 0.5267

                    10                     11                     12
                     A                      A                      A
 Frequencies --   115.7747               126.5239               132.6442
 Red. masses --     4.9320                 3.4963                 3.9385
 Frc consts  --     0.0389                 0.0330                 0.0408
 IR Inten    --     0.2729                 0.5559                 0.7934

                    13                     14                     15
                     A                      A                      A
 Frequencies --   138.3269               155.8274               167.4255
 Red. masses --     7.1344                 3.0144                 6.9637
 Frc consts  --     0.0804                 0.0431                 0.1150
 IR Inten    --     0.1660                 0.2521                 2.0818

                    16                     17                     18
                     A                      A                      A
 Frequencies --   189.6230               195.1340               217.6189
 Red. masses --     5.2424                 6.0844                 5.2978
 Frc consts  --     0.1111                 0.1365                 0.1478
 IR Inten    --     0.9928                 1.7165                 0.8359

                    19                     20                     21
                     A                      A                      A
 Frequencies --   229.5313               238.4404               259.7137
 Red. masses --     3.1482                 3.8893                 6.0439
 Frc consts  --     0.0977                 0.1303                 0.2402
 IR Inten    --     3.1855                 2.0173                 0.1698

                    22                     23                     24
                     A                      A                      A
 Frequencies --   279.6394               310.1865               316.0265
 Red. masses --     7.6356                 5.5991                 4.2007
 Frc consts  --     0.3518                 0.3174                 0.2472
 IR Inten    --     1.5547                 5.2493                 8.0687

                    25                     26                     27
                     A                      A                      A
 Frequencies --   346.0933               380.7704               394.9884
 Red. masses --     3.1344                 3.7161                 8.6396
 Frc consts  --     0.2212                 0.3174                 0.7942
 IR Inten    --     3.7122                 5.3816                 5.6931

                    28                     29                     30
                     A                      A                      A
 Frequencies --   397.3559               427.0359               455.0951
 Red. masses --     7.8889                 4.4730                 5.4330
 Frc consts  --     0.7339                 0.4806                 0.6630
 IR Inten    --    10.5507                 1.1102                 1.9792

                    31                     32                     33
                     A                      A                      A
 Frequencies --   458.3944               463.1009               469.2699
 Red. masses --     3.3709                 1.2536                 2.1061
 Frc consts  --     0.4173                 0.1584                 0.2733
 IR Inten    --     7.9012                 6.7891                 7.4413

                    34                     35                     36
                     A                      A                      A
 Frequencies --   474.1910               494.6475               498.0525
 Red. masses --     3.0038                 5.4518                 6.3690
 Frc consts  --     0.3979                 0.7859                 0.9308
 IR Inten    --    17.9512                 1.2837                 4.0391

                    37                     38                     39
                     A                      A                      A
 Frequencies --   523.5907               531.6202               536.0629
 Red. masses --     5.2651                 3.0074                 4.1114
 Frc consts  --     0.8504                 0.5008                 0.6961
 IR Inten    --    11.4139                10.9742                18.1641

                    40                     41                     42
                     A                      A                      A
 Frequencies --   553.1583               562.3074               569.7975
 Red. masses --     9.0088                 2.6738                 1.9953
 Frc consts  --     1.6241                 0.4981                 0.3817
 IR Inten    --     1.2508                38.9651                32.8947

                    43                     44                     45
                     A                      A                      A
 Frequencies --   589.1574               610.7034               624.6332
 Red. masses --     2.8413                 6.0928                 7.0468
 Frc consts  --     0.5811                 1.3388                 1.6199
 IR Inten    --    14.6822                 5.4759                 7.0946

                    46                     47                     48
                     A                      A                      A
 Frequencies --   635.8406               643.4367               663.7421
 Red. masses --     1.3033                 7.9113                 6.7191
 Frc consts  --     0.3105                 1.9298                 1.7441
 IR Inten    --     9.8948                22.3860                 7.7682

                    49                     50                     51
                     A                      A                      A
 Frequencies --   675.3418               690.2718               701.8460
 Red. masses --     3.8585                 1.8009                 1.3934
 Frc consts  --     1.0369                 0.5056                 0.4044
 IR Inten    --    21.2617                 0.3865                32.7289

                    52                     53                     54
                     A                      A                      A
 Frequencies --   706.4818               714.4073               717.1905
 Red. masses --     2.6482                 2.2252                 1.9711
 Frc consts  --     0.7788                 0.6691                 0.5974
 IR Inten    --    22.3673                 8.8501                16.9501

                    55                     56                     57
                     A                      A                      A
 Frequencies --   728.8359               739.9389               744.7777
 Red. masses --     2.1962                 2.8823                 1.6060
 Frc consts  --     0.6874                 0.9298                 0.5249
 IR Inten    --     1.8507                28.6923                13.7251

                    58                     59                     60
                     A                      A                      A
 Frequencies --   773.7003               800.1656               806.5916
 Red. masses --     4.6507                 7.4069                 3.4582
 Frc consts  --     1.6403                 2.7941                 1.3256
 IR Inten    --    24.8532                14.4841                98.2126

                    61                     62                     63
                     A                      A                      A
 Frequencies --   822.5612               831.3064               836.2084
 Red. masses --     5.9470                 8.8416                10.3192
 Frc consts  --     2.3708                 3.6000                 4.2513
 IR Inten    --    51.9101                48.3760               118.3695

                    64                     65                     66
                     A                      A                      A
 Frequencies --   846.4258               853.8901               859.3267
 Red. masses --     3.6043                 7.6489                 2.0577
 Frc consts  --     1.5214                 3.2859                 0.8953
 IR Inten    --    40.4939                14.8616               206.8579

                    67                     68                     69
                     A                      A                      A
 Frequencies --   863.1810               882.6085               889.4984
 Red. masses --     2.3219                 6.6480                 2.0028
 Frc consts  --     1.0193                 3.0513                 0.9336
 IR Inten    --   141.6100                27.0394                 4.2065

                    70                     71                     72
                     A                      A                      A
 Frequencies --   891.8858               909.0043               913.3087
 Red. masses --     1.9298                 8.6406                 2.2219
 Frc consts  --     0.9045                 4.2065                 1.0920
 IR Inten    --     0.1757                36.3753                11.4563

                    73                     74                     75
                     A                      A                      A
 Frequencies --   924.4013               943.1780               953.3662
 Red. masses --     1.3603                 1.4939                 3.6157
 Frc consts  --     0.6849                 0.7830                 1.9363
 IR Inten    --    12.1260                 5.5029                 1.4073

                    76                     77                     78
                     A                      A                      A
 Frequencies --   963.0696               965.3206               971.1965
 Red. masses --     1.0823                 1.3784                 1.8108
 Frc consts  --     0.5915                 0.7568                 1.0063
 IR Inten    --    90.7069                 0.1302                44.7070

                    79                     80                     81
                     A                      A                      A
 Frequencies --   977.3728               981.8444               983.4237
 Red. masses --     4.1039                 2.1645                 1.0555
 Frc consts  --     2.3098                 1.2294                 0.6015
 IR Inten    --     7.0099                 2.6093                93.8292

                    82                     83                     84
                     A                      A                      A
 Frequencies --  1025.9780              1032.7885              1040.8084
 Red. masses --     2.0655                 1.7025                 3.8937
 Frc consts  --     1.2810                 1.0700                 2.4851
 IR Inten    --     3.5974                69.3563                10.7010

                    85                     86                     87
                     A                      A                      A
 Frequencies --  1123.4394              1129.7000              1131.0574
 Red. masses --     2.3906                 1.7281                 1.1317
 Frc consts  --     1.7777                 1.2994                 0.8530
 IR Inten    --     8.2008                 7.8084                 0.0699

                    88                     89                     90
                     A                      A                      A
 Frequencies --  1150.8291              1156.7752              1162.9466
 Red. masses --     1.1067                 1.1107                 1.3511
 Frc consts  --     0.8636                 0.8757                 1.0766
 IR Inten    --     0.1031                 0.1181                 5.5990

                    91                     92                     93
                     A                      A                      A
 Frequencies --  1190.6777              1202.1792              1203.8313
 Red. masses --     4.7441                 2.4574                 3.2195
 Frc consts  --     3.9627                 2.0925                 2.7490
 IR Inten    --    15.3166                22.0752                 3.7477

                    94                     95                     96
                     A                      A                      A
 Frequencies --  1218.6502              1256.0613              1260.3996
 Red. masses --     4.4649                 4.3507                 1.6171
 Frc consts  --     3.9068                 4.0442                 1.5136
 IR Inten    --    27.0641                 2.5737                 2.2455

                    97                     98                     99
                     A                      A                      A
 Frequencies --  1309.3239              1314.1117              1326.4202
 Red. masses --     2.7466                 1.7821                 2.2174
 Frc consts  --     2.7742                 1.8132                 2.2986
 IR Inten    --    50.8647                 0.8635                 3.3751

                   100                    101                    102
                     A                      A                      A
 Frequencies --  1329.1003              1342.6306              1353.4094
 Red. masses --     3.0672                 4.5012                 4.2261
 Frc consts  --     3.1923                 4.7807                 4.5609
 IR Inten    --     4.6541                34.0910                 6.3377

                   103                    104                    105
                     A                      A                      A
 Frequencies --  1356.1967              1369.6749              1395.3447
 Red. masses --     3.4685                 3.1419                 1.4947
 Frc consts  --     3.7587                 3.4728                 1.7146
 IR Inten    --     4.0229                11.0576                27.9402

                   106                    107                    108
                     A                      A                      A
 Frequencies --  1406.7813              1414.3745              1448.6428
 Red. masses --     1.6458                 6.1288                 1.1474
 Frc consts  --     1.9191                 7.2236                 1.4187
 IR Inten    --     3.1942                 0.8854                 1.4625

                   109                    110                    111
                     A                      A                      A
 Frequencies --  1449.8209              1467.8380              1491.5636
 Red. masses --     1.0805                 5.9487                 7.8076
 Frc consts  --     1.3381                 7.5514                10.2341
 IR Inten    --     4.1931                44.4790               151.7259

                   112                    113                    114
                     A                      A                      A
 Frequencies --  1504.9784              1531.6691              1548.1315
 Red. masses --     9.5331                 5.7297                 5.1081
 Frc consts  --    12.7217                 7.9197                 7.2131
 IR Inten    --   293.7967               184.2760                69.6251

                   115                    116                    117
                     A                      A                      A
 Frequencies --  1556.6662              1575.1456              1586.5072
 Red. masses --     8.3229                 8.2768                 9.9328
 Frc consts  --    11.8827                12.0992                14.7301
 IR Inten    --     3.8923                25.4164                25.6808

                   118                    119                    120
                     A                      A                      A
 Frequencies --  1623.9353              2194.3620              2211.2414
 Red. masses --     5.4301                 1.0485                 1.0353
 Frc consts  --     8.4371                 2.9747                 2.9826
 IR Inten    --    38.6551               126.4704                34.3590

                   121                    122                    123
                     A                      A                      A
 Frequencies --  2212.3897              2220.5385              2974.1526
 Red. masses --     1.0490                 1.0299                 1.0629
 Frc consts  --     3.0252                 2.9920                 5.5397
 IR Inten    --   196.3224               127.5852                47.0373

                   124                    125                    126
                     A                      A                      A
 Frequencies --  2983.8996              2991.8176              2997.6477
 Red. masses --     1.0585                 1.0946                 1.0985
 Frc consts  --     5.5529                 5.7725                 5.8160
 IR Inten    --    20.6061                16.1854                 7.1408

                   127                    128                    129
                     A                      A                      A
 Frequencies --  3048.4565              3073.9968              3179.0733
 Red. masses --     1.0623                 1.0980                 1.0897
 Frc consts  --     5.8166                 6.1132                 6.4886
 IR Inten    --     0.5643                 1.6871                34.1261

                   130                    131                    132
                     A                      A                      A
 Frequencies --  3183.0945              3191.0793              3215.7597
 Red. masses --     1.0878                 1.0879                 1.0873
 Frc consts  --     6.4935                 6.5270                 6.6250
 IR Inten    --    22.7646                21.8082                16.4887

                   133                    134                    135
                     A                      A                      A
 Frequencies --  3237.5688              3244.4690              3247.5057
 Red. masses --     1.0991                 1.0937                 1.0984
 Frc consts  --     6.7878                 6.7832                 6.8254
 IR Inten    --    18.8770                 0.1370                 3.9113

 - Thermochemistry -
 -------------------
 Temperature   298.150 Kelvin.  Pressure   1.00000 Atm.
 Atom     1 has atomic number  6 and mass  12.00000

 Molecular mass:   475.01232 amu.
 Principal axes and moments of inertia in atomic units:
                           1         2         3
     Eigenvalues --  6856.64534********************
           X            0.99997  -0.00750   0.00232
           Y            0.00748   0.99994   0.00776
           Z           -0.00238  -0.00774   0.99997
 This molecule is an asymmetric top.
 Rotational symmetry number  1.
 Warning -- assumption of classical behavior for rotation
           may cause significant error
 Rotational temperatures (Kelvin)      0.01263     0.00255     0.00225
 Rotational constants (GHZ):           0.26321     0.05313     0.04680
 Zero-point vibrational energy     850046.8 (Joules/Mol)
                                  203.16605 (Kcal/Mol)
 Warning -- explicit consideration of  44 degrees of freedom as
           vibrations may cause significant error
 Vibrational temperatures:     20.11    26.75    44.10    60.38    68.34
          (Kelvin)             80.48   107.96   124.43   163.63   166.57
                              182.04   190.85   199.02   224.20   240.89
                              272.82   280.75   313.10   330.24   343.06
                              373.67   402.34   446.29   454.69   497.95
                              547.84   568.30   571.71   614.41   654.78
                              659.53   666.30   675.17   682.25   711.69
                              716.59   753.33   764.88   771.27   795.87
                              809.03   819.81   847.67   878.66   898.71
                              914.83   925.76   954.98   971.67   993.15
                             1009.80  1016.47  1027.87  1031.88  1048.63
                             1064.61  1071.57  1113.18  1151.26  1160.50
                             1183.48  1196.06  1203.12  1217.82  1228.56
                             1236.38  1241.92  1269.88  1279.79  1283.22
                             1307.85  1314.05  1330.01  1357.02  1371.68
                             1385.64  1388.88  1397.33  1406.22  1412.65
                             1414.93  1476.15  1485.95  1497.49  1616.38
                             1625.38  1627.34  1655.78  1664.34  1673.22
                             1713.12  1729.67  1732.04  1753.36  1807.19
                             1813.43  1883.82  1890.71  1908.42  1912.28
                             1931.74  1947.25  1951.26  1970.65  2007.59
                             2024.04  2034.97  2084.27  2085.97  2111.89
                             2146.02  2165.33  2203.73  2227.41  2239.69
                             2266.28  2282.63  2336.48  3157.19  3181.48
                             3183.13  3194.86  4279.14  4293.16  4304.55
                             4312.94  4386.04  4422.79  4573.97  4579.76
                             4591.25  4626.76  4658.13  4668.06  4672.43

 Zero-point correction=                           0.323766 (Hartree/Particle)
 Thermal correction to Energy=                    0.350604
 Thermal correction to Enthalpy=                  0.351548
 Thermal correction to Gibbs Free Energy=         0.263314
 Sum of electronic and zero-point Energies=          -2785.961378
 Sum of electronic and thermal Energies=             -2785.934539
 Sum of electronic and thermal Enthalpies=           -2785.933595
 Sum of electronic and thermal Free Energies=        -2786.021829

                     E (Thermal)             CV                S
                      KCal/Mol        Cal/Mol-Kelvin    Cal/Mol-Kelvin
 Total                  220.007            105.792            185.705
 Electronic               0.000              0.000              2.183
 Translational            0.889              2.981             44.363
 Rotational               0.889              2.981             37.438
 Vibrational            218.230             99.830            101.720
 Vibration     1          0.593              1.986              7.346
 Vibration     2          0.593              1.986              6.779
 Vibration     3          0.594              1.984              5.787
 Vibration     4          0.595              1.980              5.164
 Vibration     5          0.595              1.979              4.919
 Vibration     6          0.596              1.975              4.596
 Vibration     7          0.599              1.966              4.017
 Vibration     8          0.601              1.959              3.738
 Vibration     9          0.607              1.938              3.204
 Vibration    10          0.608              1.936              3.170
 Vibration    11          0.611              1.927              2.998
 Vibration    12          0.613              1.921              2.907
 Vibration    13          0.614              1.915              2.827
 Vibration    14          0.620              1.896              2.600
 Vibration    15          0.624              1.883              2.464
 Vibration    16          0.633              1.854              2.232
 Vibration    17          0.636              1.847              2.179
 Vibration    18          0.646              1.814              1.979
 Vibration    19          0.652              1.796              1.883
 Vibration    20          0.656              1.782              1.814
 Vibration    21          0.668              1.746              1.664
 Vibration    22          0.680              1.711              1.536
 Vibration    23          0.699              1.654              1.361
 Vibration    24          0.703              1.643              1.331
 Vibration    25          0.724              1.583              1.184
 Vibration    26          0.751              1.511              1.036
 Vibration    27          0.762              1.481              0.981
 Vibration    28          0.764              1.476              0.972
 Vibration    29          0.789              1.411              0.868
 Vibration    30          0.813              1.350              0.781
 Vibration    31          0.816              1.342              0.771
 Vibration    32          0.821              1.332              0.757
 Vibration    33          0.826              1.318              0.740
 Vibration    34          0.831              1.307              0.726
 Vibration    35          0.850              1.262              0.672
 Vibration    36          0.854              1.254              0.663
 Vibration    37          0.879              1.198              0.602
 Vibration    38          0.887              1.180              0.584
 Vibration    39          0.891              1.170              0.574
 Vibration    40          0.909              1.133              0.538
 Vibration    41          0.918              1.113              0.519
 Vibration    42          0.926              1.097              0.505
 Vibration    43          0.946              1.055              0.469
 Vibration    44          0.970              1.009              0.432

 Normal termination of Gaussian 09 at Sun Dec 29 12:32:33 2013.
