 Gaussian 09, Revision C.01,
 Gaussian 09:  EM64L-G09RevC.01 23-Sep-2011

 --------------------------------------------
 #B3LYP/6-31++G(d,p) opt scf=direct freq test
 --------------------------------------------

 Geom opt of No.8 candidate from the CEPDB database with SMILE code of
 [SiH2]1cccc1-c1ccc(cn1)-c1sc(-c2cncc3nsnc23)c2[Se]ccc12, HPC, 20131227
 , Shuo Dai, Gaussian09
 ----------------------------------------------------------------------
 Charge =  0 Multiplicity = 1

 SCF Done:  E(RB3LYP) =  -4471.93571878     A.U. after   19 cycles
 SCF Done:  E(RB3LYP) =  -4472.35981288     A.U. after   18 cycles
 SCF Done:  E(RB3LYP) =  -4472.93173252     A.U. after   18 cycles
 SCF Done:  E(RB3LYP) =  -4473.34808490     A.U. after   24 cycles
 SCF Done:  E(RB3LYP) =  -4473.40285519     A.U. after   26 cycles
 SCF Done:  E(RB3LYP) =  -4473.49797050     A.U. after   24 cycles
 SCF Done:  E(RB3LYP) =  -4473.58887625     A.U. after   23 cycles
 SCF Done:  E(RB3LYP) =  -4473.60701681     A.U. after   24 cycles
 SCF Done:  E(RB3LYP) =  -4473.61846789     A.U. after   24 cycles
 SCF Done:  E(RB3LYP) =  -4473.60862289     A.U. after   27 cycles
 SCF Done:  E(RB3LYP) =  -4473.63348198     A.U. after   12 cycles
 SCF Done:  E(RB3LYP) =  -4473.63348783     A.U. after   11 cycles
 SCF Done:  E(RB3LYP) =  -4473.63349048     A.U. after   11 cycles
 SCF Done:  E(RB3LYP) =  -4473.63349240     A.U. after   11 cycles
 SCF Done:  E(RB3LYP) =  -4473.63349354     A.U. after   11 cycles
 SCF Done:  E(RB3LYP) =  -4473.63349445     A.U. after   11 cycles
 SCF Done:  E(RB3LYP) =  -4473.63349515     A.U. after   10 cycles
 SCF Done:  E(RB3LYP) =  -4473.63349525     A.U. after   10 cycles
 SCF Done:  E(RB3LYP) =  -4473.63349545     A.U. after   10 cycles
 Optimization completed.
    -- Stationary point found.
 Normal termination of Gaussian 09 at Mon Dec 30 05:21:57 2013.

 ----------------------------------------------------------------------
 #N Geom=AllCheck Guess=TCheck SCRF=Check Test GenChk RB3LYP/6-31++G(d,
 p) Freq
 ----------------------------------------------------------------------

 Geom opt of No.8 candidate from the CEPDB database with SMILE code of
 [SiH2]1cccc1-c1ccc(cn1)-c1sc(-c2cncc3nsnc23)c2[Se]ccc12, HPC, 20131227
 , Shuo Dai, Gaussian09
 ----------------------------------------------------------------------
 Charge =  0 Multiplicity = 1

                         Standard orientation:
 ---------------------------------------------------------------------
 Center     Atomic      Atomic             Coordinates (Angstroms)
 Number     Number       Type             X           Y           Z
 ---------------------------------------------------------------------
      1         14           0        7.260867    1.523225    0.679467
      2          1           0        7.090483    1.596919    2.151877
      3          1           0        6.992990    2.852943    0.077357
      4          6           0        8.921908    0.800274    0.163711
      5          6           0        8.671109   -0.343515   -0.518192
      6          6           0        7.255703   -0.730096   -0.685122
      7          6           0        6.323750    0.098432   -0.139444
      8          6           0        4.873049   -0.051855   -0.158239
      9          6           0        4.195686   -1.121210   -0.780760
     10          6           0        2.811479   -1.171190   -0.747931
     11          6           0        2.088445   -0.160332   -0.082509
     12          6           0        2.854445    0.865958    0.507396
     13          7           0        4.182812    0.926976    0.473771
     14          6           0        0.628899   -0.158271   -0.025909
     15         16           0       -0.252753    1.339174   -0.123739
     16          6           0       -1.831145    0.554088   -0.039812
     17          6           0       -3.018718    1.396534   -0.085192
     18          6           0       -2.934533    2.787122   -0.172652
     19          7           0       -3.972060    3.667727   -0.232556
     20          6           0       -5.208936    3.226289   -0.210281
     21          6           0       -5.472822    1.830031   -0.120769
     22          7           0       -6.680274    1.250034   -0.084636
     23         16           0       -6.415181   -0.363766    0.027328
     24          7           0       -4.769569   -0.375618    0.033435
     25          6           0       -4.367568    0.895798   -0.053626
     26          6           0       -1.638302   -0.819387    0.052385
     27         34           0       -2.766257   -2.340867    0.193605
     28          6           0       -1.171332   -3.374854    0.300131
     29          6           0       -0.034332   -2.646199    0.223583
     30          6           0       -0.254179   -1.226104    0.069144
     31          1           0        9.932390    1.157596    0.332797
     32          1           0        9.448737   -0.978914   -0.939717
     33          1           0        7.016156   -1.644208   -1.227196
     34          1           0        4.752090   -1.893847   -1.300789
     35          1           0        2.284068   -1.968436   -1.261417
     36          1           0        2.356678    1.669659    1.047052
     37          1           0       -1.958941    3.263141   -0.198319
     38          1           0       -6.023900    3.943179   -0.260546
     39          1           0       -1.239051   -4.448009    0.426255
     40          1           0        0.953833   -3.085145    0.294541
 ---------------------------------------------------------------------

 SCF Done:  E(RB3LYP) =  -4473.63349545     A.U. after    2 cycles

 The electronic state is 1-A.
 Alpha  occ. eigenvalues -- -453.90321 -89.00091 -88.93315 -66.13359 -57.50128
 Alpha  occ. eigenvalues --  -52.17468 -52.17362 -52.17056 -14.39848 -14.39782
 Alpha  occ. eigenvalues --  -14.36115 -14.34934 -10.27384 -10.26486 -10.25464
 Alpha  occ. eigenvalues --  -10.25045 -10.25037 -10.24959 -10.24801 -10.24503
 Alpha  occ. eigenvalues --  -10.24426 -10.24163 -10.23317 -10.22868 -10.22701
 Alpha  occ. eigenvalues --  -10.22463 -10.21738 -10.21660 -10.21283 -10.21268
 Alpha  occ. eigenvalues --  -10.19542 -10.18757  -8.05398  -7.99195  -7.74307
 Alpha  occ. eigenvalues --   -6.01958  -6.01374  -6.01150  -5.95644  -5.95252
 Alpha  occ. eigenvalues --   -5.94883  -5.78524  -5.78125  -5.77401  -5.28110
 Alpha  occ. eigenvalues --   -3.63990  -3.63958  -3.63933  -2.14155  -2.14104
 Alpha  occ. eigenvalues --   -2.13473  -2.13155  -2.13061  -1.04621  -0.96363
 Alpha  occ. eigenvalues --   -0.96111  -0.92309  -0.91336  -0.84698  -0.84369
 Alpha  occ. eigenvalues --   -0.83596  -0.82002  -0.80036  -0.78848  -0.75824
 Alpha  occ. eigenvalues --   -0.73290  -0.72605  -0.70438  -0.68524  -0.66533
 Alpha  occ. eigenvalues --   -0.64979  -0.64500  -0.63194  -0.61628  -0.59691
 Alpha  occ. eigenvalues --   -0.56965  -0.55787  -0.54697  -0.53624  -0.53168
 Alpha  occ. eigenvalues --   -0.52628  -0.51184  -0.50141  -0.49111  -0.48539
 Alpha  occ. eigenvalues --   -0.47899  -0.46809  -0.46513  -0.44987  -0.43891
 Alpha  occ. eigenvalues --   -0.43407  -0.42836  -0.42172  -0.41932  -0.41520
 Alpha  occ. eigenvalues --   -0.40816  -0.40129  -0.39635  -0.39448  -0.38593
 Alpha  occ. eigenvalues --   -0.37535  -0.36927  -0.36477  -0.34627  -0.34364
 Alpha  occ. eigenvalues --   -0.34098  -0.32889  -0.32774  -0.31841  -0.31554
 Alpha  occ. eigenvalues --   -0.31140  -0.30271  -0.29792  -0.28393  -0.28021
 Alpha  occ. eigenvalues --   -0.27452  -0.26590  -0.25401  -0.23211  -0.20164
 Alpha virt. eigenvalues --   -0.11886  -0.09076  -0.06231  -0.04620  -0.03579
 Alpha virt. eigenvalues --   -0.02383  -0.02303  -0.01555  -0.01410  -0.01203
 Alpha virt. eigenvalues --   -0.00524  -0.00255   0.00467   0.00930   0.01226

 Mulliken atomic charges:
              1
     1  Si   0.703760
     2  H   -0.069607
     3  H   -0.068826
     4  C   -0.344588
     5  C   -0.165712
     6  C    0.302663
     7  C   -0.743680
     8  C    0.201589
     9  C   -0.511904
    10  C   -0.290328
    11  C    0.432274
    12  C   -0.144417
    13  N   -0.066319
    14  C   -0.923666
    15  S   -0.254638
    16  C   -0.673872
    17  C   -0.848797
    18  C   -0.364426
    19  N   -0.099471
    20  C   -0.168747
    21  C    0.021485
    22  N   -0.394939
    23  S    0.866045
    24  N   -0.477513
    25  C    0.843672
    26  C    0.934603
    27  Se   0.159923
    28  C    0.020340
    29  C   -0.508780
    30  C    1.143065
    31  H    0.151366
    32  H    0.122334
    33  H    0.105989
    34  H    0.105346
    35  H    0.152199
    36  H    0.153666
    37  H    0.194216
    38  H    0.181764
    39  H    0.196155
    40  H    0.127775
 Sum of Mulliken atomic charges =  -0.00000

 Dipole moment (field-independent basis, Debye):
    X=              0.8622    Y=             -4.0670    Z=             -0.8529  Tot=              4.2440
 Quadrupole moment (field-independent basis, Debye-Ang):
   XX=           -182.6155   YY=           -193.3379   ZZ=           -199.2675
   XY=             -0.9614   XZ=             -6.6352   YZ=              3.4568

  Exact polarizability: 818.405 -37.011 389.917  -4.161  11.281 190.215
 Approx polarizability:1161.325 -68.630 776.201 -13.524  25.485 326.422

                     1                      2                      3
                     A                      A                      A
 Frequencies --    16.9496                24.5270                28.6487
 Red. masses --    10.8026                 5.2192                 6.4332
 Frc consts  --     0.0018                 0.0018                 0.0031
 IR Inten    --     0.0967                 0.3211                 0.0901

                     4                      5                      6
                     A                      A                      A
 Frequencies --    38.8284                62.9120                72.7329
 Red. masses --     8.8004                 5.1542                 6.6910
 Frc consts  --     0.0078                 0.0120                 0.0209
 IR Inten    --     0.0110                 0.3256                 1.2153

                     7                      8                      9
                     A                      A                      A
 Frequencies --    87.9749                98.2286               111.3287
 Red. masses --     8.8508                 6.1878                 8.9369
 Frc consts  --     0.0404                 0.0352                 0.0653
 IR Inten    --     0.6801                 0.5123                 0.1408

                    10                     11                     12
                     A                      A                      A
 Frequencies --   136.8470               147.1186               172.4030
 Red. masses --     9.4898                 6.3433                 4.4609
 Frc consts  --     0.1047                 0.0809                 0.0781
 IR Inten    --     0.9177                 0.1708                 0.0857

                    13                     14                     15
                     A                      A                      A
 Frequencies --   195.4676               203.3957               211.5460
 Red. masses --    10.8891                 8.9227                 5.5333
 Frc consts  --     0.2451                 0.2175                 0.1459
 IR Inten    --     0.9007                 0.7809                 1.3087

                    16                     17                     18
                     A                      A                      A
 Frequencies --   244.3883               253.4118               262.5557
 Red. masses --     4.4665                 4.8790                 5.0135
 Frc consts  --     0.1572                 0.1846                 0.2036
 IR Inten    --     4.9180                 1.2027                 0.8350

                    19                     20                     21
                     A                      A                      A
 Frequencies --   294.8823               322.4669               336.4063
 Red. masses --     5.3975                13.0196                 5.8783
 Frc consts  --     0.2765                 0.7977                 0.3919
 IR Inten    --     0.2404                 0.7218                 0.2103

                    22                     23                     24
                     A                      A                      A
 Frequencies --   383.0627               394.3624               401.8992
 Red. masses --     4.9479                 5.5980                 1.9878
 Frc consts  --     0.4278                 0.5129                 0.1892
 IR Inten    --     0.9649                 1.4952                 0.2491

                    25                     26                     27
                     A                      A                      A
 Frequencies --   408.9528               430.3176               449.1146
 Red. masses --     5.4313                 3.9162                 8.8310
 Frc consts  --     0.5352                 0.4273                 1.0495
 IR Inten    --     5.7449                 2.6400                 9.6913

                    28                     29                     30
                     A                      A                      A
 Frequencies --   480.8094               484.7252               491.2978
 Red. masses --     3.9795                 7.5225                 8.0992
 Frc consts  --     0.5420                 1.0414                 1.1518
 IR Inten    --     8.3403                 3.6310                 7.5969

                    31                     32                     33
                     A                      A                      A
 Frequencies --   502.3790               532.9014               544.6687
 Red. masses --     9.8598                 4.3612                 7.0638
 Frc consts  --     1.4662                 0.7297                 1.2347
 IR Inten    --     6.0869                 7.6794                 7.6857

                    34                     35                     36
                     A                      A                      A
 Frequencies --   559.3194               576.1324               599.5443
 Red. masses --     8.2059                 5.4211                 3.6988
 Frc consts  --     1.5125                 1.0602                 0.7833
 IR Inten    --     4.2276                 2.4661                 6.9544

                    37                     38                     39
                     A                      A                      A
 Frequencies --   608.2717               617.5026               619.9272
 Red. masses --     2.1106                 8.2109                 6.4813
 Frc consts  --     0.4601                 1.8447                 1.4676
 IR Inten    --     2.2675                 6.4938                 2.5347

                    40                     41                     42
                     A                      A                      A
 Frequencies --   634.5549               652.7932               663.8572
 Red. masses --     6.5644                 4.7105                 7.5436
 Frc consts  --     1.5573                 1.1827                 1.9588
 IR Inten    --    12.3881                 2.8290                 1.7397

                    43                     44                     45
                     A                      A                      A
 Frequencies --   687.3917               690.1985               708.3954
 Red. masses --     1.6765                 1.3948                 9.0892
 Frc consts  --     0.4667                 0.3915                 2.6874
 IR Inten    --    13.0303                34.4378                 4.2499

                    46                     47                     48
                     A                      A                      A
 Frequencies --   720.4870               734.2265               749.3066
 Red. masses --     1.3946                 6.7026                 1.2901
 Frc consts  --     0.4265                 2.1289                 0.4268
 IR Inten    --     7.3843                 5.0090                87.5538

                    49                     50                     51
                     A                      A                      A
 Frequencies --   778.8339               792.1553               807.6342
 Red. masses --     3.7139                 3.3375                 5.8936
 Frc consts  --     1.3273                 1.2339                 2.2649
 IR Inten    --     4.7968                13.2140                72.6023

                    52                     53                     54
                     A                      A                      A
 Frequencies --   819.0041               831.1742               832.3276
 Red. masses --     8.4859                 3.7286                11.4757
 Frc consts  --     3.3537                 1.5177                 4.6840
 IR Inten    --    27.1382                16.8282                16.1249

                    55                     56                     57
                     A                      A                      A
 Frequencies --   838.9552               857.5399               867.2883
 Red. masses --     4.7505                 1.5885                 8.4683
 Frc consts  --     1.9700                 0.6882                 3.7530
 IR Inten    --   125.9502                33.0976                 0.8614

                    58                     59                     60
                     A                      A                      A
 Frequencies --   875.7906               912.3359               926.0922
 Red. masses --     1.3761                 7.6632                 1.4384
 Frc consts  --     0.6219                 3.7581                 0.7268
 IR Inten    --    18.3660                27.5704                 1.3979

                    61                     62                     63
                     A                      A                      A
 Frequencies --   927.0024               936.5691               940.1208
 Red. masses --     1.3911                 1.5552                 1.1291
 Frc consts  --     0.7043                 0.8038                 0.5880
 IR Inten    --     2.0036                 0.0219                62.6511

                    64                     65                     66
                     A                      A                      A
 Frequencies --   951.4108               955.8361               971.1860
 Red. masses --     1.7540                 6.3924                 4.8866
 Frc consts  --     0.9354                 3.4409                 2.7156
 IR Inten    --     3.2161                 1.4466                 0.6623

                    67                     68                     69
                     A                      A                      A
 Frequencies --   985.4108               996.7342               997.5848
 Red. masses --     3.4171                 1.3166                 1.3483
 Frc consts  --     1.9550                 0.7707                 0.7905
 IR Inten    --    21.8049                 0.4571                 1.2026

                    70                     71                     72
                     A                      A                      A
 Frequencies --  1008.9304              1020.6949              1048.5139
 Red. masses --     2.5687                 4.1463                 2.7478
 Frc consts  --     1.5406                 2.5451                 1.7799
 IR Inten    --     7.2622                 5.4065                14.1099

                    73                     74                     75
                     A                      A                      A
 Frequencies --  1111.8741              1116.9338              1151.4621
 Red. masses --     1.1766                 1.1673                 4.9469
 Frc consts  --     0.8570                 0.8580                 3.8644
 IR Inten    --     2.7723                 2.7131                16.3554

                    76                     77                     78
                     A                      A                      A
 Frequencies --  1157.2717              1169.2070              1259.1720
 Red. masses --     3.8755                 1.3801                 2.9628
 Frc consts  --     3.0581                 1.1116                 2.7677
 IR Inten    --    12.2048                 6.6906                20.3685

                    79                     80                     81
                     A                      A                      A
 Frequencies --  1277.3672              1290.7542              1303.1719
 Red. masses --     2.5478                 2.5779                 2.2127
 Frc consts  --     2.4493                 2.5305                 2.2140
 IR Inten    --     7.4139               115.9096                 7.3562

                    82                     83                     84
                     A                      A                      A
 Frequencies --  1309.3598              1320.9962              1326.6783
 Red. masses --     2.6002                 2.1598                 2.4938
 Frc consts  --     2.6264                 2.2206                 2.5861
 IR Inten    --    16.6086                 0.7970                17.2258

                    85                     86                     87
                     A                      A                      A
 Frequencies --  1335.2851              1361.4307              1361.6440
 Red. masses --     2.1320                 1.9067                 5.7584
 Frc consts  --     2.2397                 2.0822                 6.2904
 IR Inten    --     4.3707                51.4214                66.4445

                    88                     89                     90
                     A                      A                      A
 Frequencies --  1375.5953              1381.0414              1413.6979
 Red. masses --     4.7335                 3.2447                 3.4821
 Frc consts  --     5.2774                 3.6462                 4.1001
 IR Inten    --     7.1289                 0.5918                66.8166

                    91                     92                     93
                     A                      A                      A
 Frequencies --  1415.4426              1483.8817              1507.5190
 Red. masses --     2.4646                 6.0494                 3.0412
 Frc consts  --     2.9092                 7.8480                 4.0721
 IR Inten    --     7.0333               173.1290                50.0019

                    94                     95                     96
                     A                      A                      A
 Frequencies --  1519.1433              1537.1678              1540.3967
 Red. masses --     7.4783                 5.9954                 5.4669
 Frc consts  --    10.1684                 8.3466                 7.6429
 IR Inten    --     6.6903                98.9119                65.1035

                    97                     98                     99
                     A                      A                      A
 Frequencies --  1553.0187              1575.7189              1587.5849
 Red. masses --     7.6726                 5.1669                 7.4021
 Frc consts  --    10.9030                 7.5585                10.9921
 IR Inten    --    22.8993                15.5472                33.3002

                   100                    101                    102
                     A                      A                      A
 Frequencies --  1603.6370              1621.8239              1636.4212
 Red. masses --     6.0448                 5.3925                 5.9223
 Frc consts  --     9.1588                 8.3569                 9.3439
 IR Inten    --    21.4876                69.1280                 2.6653

                   103                    104                    105
                     A                      A                      A
 Frequencies --  2240.1218              2243.4534              3149.8477
 Red. masses --     1.0297                 1.0524                 1.0875
 Frc consts  --     3.0444                 3.1207                 6.3570
 IR Inten    --    90.2913               102.8505                33.1703

                   106                    107                    108
                     A                      A                      A
 Frequencies --  3165.4431              3165.6632              3190.7202
 Red. masses --     1.0908                 1.0908                 1.0883
 Frc consts  --     6.4395                 6.4407                 6.5280
 IR Inten    --    54.3018                 7.4384                25.2565

                   109                    110                    111
                     A                      A                      A
 Frequencies --  3195.7383              3198.3346              3212.7227
 Red. masses --     1.0931                 1.0877                 1.0947
 Frc consts  --     6.5776                 6.5554                 6.6571
 IR Inten    --     2.1365                 9.6576                10.5914

                   112                    113                    114
                     A                      A                      A
 Frequencies --  3213.4545              3220.6196              3247.3034
 Red. masses --     1.0946                 1.0879                 1.0991
 Frc consts  --     6.6594                 6.6487                 6.8287
 IR Inten    --     6.3945                 2.9959                 5.0170

 - Thermochemistry -
 -------------------
 Temperature   298.150 Kelvin.  Pressure   1.00000 Atm.
 Atom     1 has atomic number 14 and mass  27.97693

 Molecular mass:   479.94379 amu.
 Principal axes and moments of inertia in atomic units:
                           1         2         3
     Eigenvalues --  5460.51990********************
           X            0.99995  -0.01007   0.00018
           Y            0.01007   0.99990   0.01020
           Z           -0.00029  -0.01020   0.99995
 This molecule is an asymmetric top.
 Rotational symmetry number  1.
 Warning -- assumption of classical behavior for rotation
           may cause significant error
 Rotational temperatures (Kelvin)      0.01586     0.00238     0.00209
 Rotational constants (GHZ):           0.33051     0.04949     0.04350
 Zero-point vibrational energy     709246.0 (Joules/Mol)
                                  169.51385 (Kcal/Mol)
 Warning -- explicit consideration of  39 degrees of freedom as
           vibrations may cause significant error
 Vibrational temperatures:     24.39    35.29    41.22    55.87    90.52
          (Kelvin)            104.65   126.58   141.33   160.18   196.89
                              211.67   248.05   281.23   292.64   304.37
                              351.62   364.60   377.76   424.27   463.96
                              484.01   551.14   567.40   578.24   588.39
                              619.13   646.17   691.78   697.41   706.87
                              722.81   766.73   783.66   804.73   828.92
                              862.61   875.17   888.45   891.94   912.98
                              939.22   955.14   989.00   993.04  1019.22
                             1036.62  1056.39  1078.08  1120.57  1139.73
                             1162.00  1178.36  1195.87  1197.53  1207.07
                             1233.81  1247.83  1260.07  1312.65  1332.44
                             1333.75  1347.51  1352.62  1368.87  1375.23
                             1397.32  1417.78  1434.08  1435.30  1451.62
                             1468.55  1508.58  1599.74  1607.02  1656.70
                             1665.05  1682.23  1811.67  1837.84  1857.11
                             1874.97  1883.87  1900.62  1908.79  1921.18
                             1958.79  1959.10  1979.17  1987.01  2033.99
                             2036.50  2134.97  2168.98  2185.71  2211.64
                             2216.28  2234.44  2267.11  2284.18  2307.27
                             2333.44  2354.44  3223.03  3227.82  4531.92
                             4554.36  4554.68  4590.73  4597.95  4601.68
                             4622.39  4623.44  4633.75  4672.14

 Zero-point correction=                           0.270138 (Hartree/Particle)
 Thermal correction to Energy=                    0.293249
 Thermal correction to Enthalpy=                  0.294193
 Thermal correction to Gibbs Free Energy=         0.214609
 Sum of electronic and zero-point Energies=          -4473.363358
 Sum of electronic and thermal Energies=             -4473.340246
 Sum of electronic and thermal Enthalpies=           -4473.339302
 Sum of electronic and thermal Free Energies=        -4473.418886

                     E (Thermal)             CV                S
                      KCal/Mol        Cal/Mol-Kelvin    Cal/Mol-Kelvin
 Total                  184.017             90.583            167.499
 Electronic               0.000              0.000              0.000
 Translational            0.889              2.981             44.393
 Rotational               0.889              2.981             37.355
 Vibrational            182.239             84.621             85.750
 Vibration     1          0.593              1.986              6.963
 Vibration     2          0.593              1.985              6.229
 Vibration     3          0.593              1.984              5.921
 Vibration     4          0.594              1.981              5.318
 Vibration     5          0.597              1.972              4.364
 Vibration     6          0.599              1.967              4.078
 Vibration     7          0.601              1.958              3.705
 Vibration     8          0.604              1.950              3.489
 Vibration     9          0.607              1.940              3.246
 Vibration    10          0.614              1.917              2.848
 Vibration    11          0.617              1.906              2.709
 Vibration    12          0.626              1.876              2.409
 Vibration    13          0.636              1.846              2.175
 Vibration    14          0.639              1.835              2.102
 Vibration    15          0.643              1.823              2.030
 Vibration    16          0.660              1.772              1.771
 Vibration    17          0.665              1.757              1.707
 Vibration    18          0.670              1.741              1.645
 Vibration    19          0.689              1.683              1.446
 Vibration    20          0.707              1.630              1.298
 Vibration    21          0.717              1.603              1.229
 Vibration    22          0.752              1.506              1.027
 Vibration    23          0.761              1.482              0.984
 Vibration    24          0.768              1.466              0.956
 Vibration    25          0.773              1.451              0.930
 Vibration    26          0.792              1.404              0.858
 Vibration    27          0.808              1.363              0.798
 Vibration    28          0.837              1.293              0.708
 Vibration    29          0.841              1.284              0.697
 Vibration    30          0.847              1.269              0.680
 Vibration    31          0.858              1.245              0.652
 Vibration    32          0.888              1.177              0.581
 Vibration    33          0.900              1.151              0.555
 Vibration    34          0.915              1.119              0.525
 Vibration    35          0.933              1.083              0.493
 Vibration    36          0.958              1.033              0.450
 Vibration    37          0.967              1.014              0.436
 Vibration    38          0.977              0.995              0.421
 Vibration    39          0.980              0.990              0.417

 Normal termination of Gaussian 09 at Mon Dec 30 06:55:33 2013.
