 Gaussian 09, Revision C.01,
 Gaussian 09:  EM64L-G09RevC.01 23-Sep-2011

 --------------------------------------------
 #B3LYP/6-31++G(d,p) opt scf=direct freq test
 --------------------------------------------

 Geom opt of No.18 candidate from the CEPDB database with SMILE code of
  [SiH2]1c(ccc1-c1ncc(-c2cccs2)c2nsnc12)-c1cccc2ccccc12, HPC, 20131227,
  Shuo Dai, Gaussian09
 ----------------------------------------------------------------------
 Charge =  0 Multiplicity = 1

 SCF Done:  E(RB3LYP) =  -2137.98624735     A.U. after   25 cycles
 SCF Done:  E(RB3LYP) =  -2138.01850651     A.U. after   18 cycles
 SCF Done:  E(RB3LYP) =  -2138.03943158     A.U. after   15 cycles
 SCF Done:  E(RB3LYP) =  -2138.04837402     A.U. after   17 cycles
 SCF Done:  E(RB3LYP) =  -2138.05173987     A.U. after   14 cycles
 SCF Done:  E(RB3LYP) =  -2138.05399539     A.U. after   17 cycles
 SCF Done:  E(RB3LYP) =  -2138.05600551     A.U. after   17 cycles
 SCF Done:  E(RB3LYP) =  -2138.04999799     A.U. after   19 cycles
 SCF Done:  E(RB3LYP) =  -2138.05811320     A.U. after   18 cycles
 SCF Done:  E(RB3LYP) =  -2138.05939349     A.U. after   17 cycles
 SCF Done:  E(RB3LYP) =  -2138.06394720     A.U. after   13 cycles
 SCF Done:  E(RB3LYP) =  -2138.06396005     A.U. after   13 cycles
 SCF Done:  E(RB3LYP) =  -2138.06397290     A.U. after   13 cycles
 SCF Done:  E(RB3LYP) =  -2138.06397511     A.U. after   12 cycles
 SCF Done:  E(RB3LYP) =  -2138.06397556     A.U. after   11 cycles
 SCF Done:  E(RB3LYP) =  -2138.06397573     A.U. after   10 cycles
 SCF Done:  E(RB3LYP) =  -2138.06397572     A.U. after   10 cycles
 SCF Done:  E(RB3LYP) =  -2138.06397571     A.U. after   10 cycles
 SCF Done:  E(RB3LYP) =  -2138.06397569     A.U. after   10 cycles
 Optimization completed.
    -- Stationary point found.
 Normal termination of Gaussian 09 at Sun Dec 29 06:24:10 2013.

 ----------------------------------------------------------------------
 #N Geom=AllCheck Guess=TCheck SCRF=Check Test GenChk RB3LYP/6-31++G(d,
 p) Freq
 ----------------------------------------------------------------------

 Geom opt of No.18 candidate from the CEPDB database with SMILE code of
  [SiH2]1c(ccc1-c1ncc(-c2cccs2)c2nsnc12)-c1cccc2ccccc12, HPC, 20131227,
  Shuo Dai, Gaussian09
 ----------------------------------------------------------------------
 Charge =  0 Multiplicity = 1

                         Standard orientation:
 ---------------------------------------------------------------------
 Center     Atomic      Atomic             Coordinates (Angstroms)
 Number     Number       Type             X           Y           Z
 ---------------------------------------------------------------------
      1         14           0       -1.532195    0.878379    0.783231
      2          1           0       -0.774541    0.561383    2.021207
      3          1           0       -2.484580    1.980526    1.071443
      4          6           0       -2.300220   -0.673431   -0.034951
      5          6           0       -1.989874   -0.523194   -1.569956
      6          6           0       -1.262173    0.807285   -1.902328
      7          6           0       -0.409205    1.334471   -0.716203
      8          6           0        0.953587    0.732897   -0.593949
      9          7           0        1.202112   -0.477172   -1.056053
     10          6           0        2.442164   -1.038286   -0.930935
     11          6           0        3.546500   -0.474566   -0.310626
     12          6           0        4.813215   -1.194725   -0.190461
     13          6           0        4.998210   -2.564786   -0.235637
     14          6           0        6.361139   -2.960097   -0.152614
     15          6           0        7.212315   -1.889947   -0.039991
     16         16           0        6.360283   -0.384819   -0.019282
     17          6           0        3.325464    0.852273    0.191298
     18          7           0        4.212937    1.645011    0.804332
     19         16           0        3.427715    3.046331    1.156263
     20          7           0        1.942785    2.696942    0.548828
     21          6           0        2.021812    1.459255    0.046432
     22          6           0       -3.706734   -1.087301    0.353063
     23          6           0       -3.872873   -2.261236    1.073661
     24          6           0       -5.143085   -2.728121    1.484516
     25          6           0       -6.275752   -2.017316    1.165194
     26          6           0       -6.174610   -0.806732    0.427634
     27          6           0       -7.337766   -0.058663    0.093567
     28          6           0       -7.251502    1.120399   -0.612611
     29          6           0       -5.983802    1.604009   -1.013928
     30          6           0       -4.838304    0.899665   -0.707232
     31          6           0       -4.882682   -0.325554    0.017172
     32          1           0       -1.646668   -1.472602    0.335360
     33          1           0       -2.911598   -0.599305   -2.154421
     34          1           0       -1.349851   -1.356441   -1.868930
     35          1           0       -2.001069    1.583434   -2.138971
     36          1           0       -0.641321    0.683180   -2.796602
     37          1           0       -0.301498    2.422920   -0.760569
     38          1           0        2.533313   -2.020584   -1.384799
     39          1           0        4.176567   -3.268232   -0.304453
     40          1           0        6.692669   -3.992025   -0.162540
     41          1           0        8.289785   -1.899312    0.054831
     42          1           0       -2.994592   -2.848889    1.328797
     43          1           0       -5.214876   -3.654655    2.046979
     44          1           0       -7.258365   -2.367942    1.469432
     45          1           0       -8.305389   -0.438879    0.411384
     46          1           0       -8.149156    1.679837   -0.859204
     47          1           0       -5.911643    2.536745   -1.565998
     48          1           0       -3.884225    1.298086   -1.026336
 ---------------------------------------------------------------------

 SCF Done:  E(RB3LYP) =  -2138.06397569     A.U. after    2 cycles

 The electronic state is 1-A.
 Alpha  occ. eigenvalues --  -88.99541 -88.92033 -66.13751 -14.39554 -14.39023
 Alpha  occ. eigenvalues --  -14.35251 -10.26507 -10.26076 -10.26008 -10.24161
 Alpha  occ. eigenvalues --  -10.23818 -10.23456 -10.22484 -10.20912 -10.20582
 Alpha  occ. eigenvalues --  -10.20579 -10.20493 -10.20461 -10.19801 -10.19768
 Alpha  occ. eigenvalues --  -10.19746 -10.19716 -10.19693 -10.19669 -10.19593
 Alpha  occ. eigenvalues --  -10.19414 -10.19293 -10.19144 -10.18873  -8.04842
 Alpha  occ. eigenvalues --   -7.97901  -6.01399  -6.00818  -6.00599  -5.94325
 Alpha  occ. eigenvalues --   -5.93942  -5.93626  -5.28440  -3.64342  -3.64286
 Alpha  occ. eigenvalues --   -3.64244  -1.04057  -0.96094  -0.91501  -0.89012
 Alpha  occ. eigenvalues --   -0.87864  -0.83075  -0.82568  -0.81559  -0.79612
 Alpha  occ. eigenvalues --   -0.77796  -0.74548  -0.74454  -0.74429  -0.73053
 Alpha  occ. eigenvalues --   -0.70572  -0.68009  -0.66130  -0.64480  -0.62713
 Alpha  occ. eigenvalues --   -0.62015  -0.61562  -0.59300  -0.57461  -0.56583
 Alpha  occ. eigenvalues --   -0.54802  -0.53401  -0.53101  -0.51875  -0.51607
 Alpha  occ. eigenvalues --   -0.51348  -0.49778  -0.49548  -0.48091  -0.47271
 Alpha  occ. eigenvalues --   -0.45918  -0.45519  -0.44377  -0.43657  -0.42425
 Alpha  occ. eigenvalues --   -0.42058  -0.41970  -0.41151  -0.40752  -0.40599
 Alpha  occ. eigenvalues --   -0.40502  -0.39907  -0.39607  -0.39455  -0.38900
 Alpha  occ. eigenvalues --   -0.37978  -0.36225  -0.36134  -0.35776  -0.35238
 Alpha  occ. eigenvalues --   -0.34944  -0.34475  -0.34109  -0.33621  -0.32875
 Alpha  occ. eigenvalues --   -0.32315  -0.31826  -0.31386  -0.30818  -0.29898
 Alpha  occ. eigenvalues --   -0.27939  -0.27811  -0.26907  -0.26046  -0.24936
 Alpha  occ. eigenvalues --   -0.22193  -0.21475
 Alpha virt. eigenvalues --   -0.11059  -0.04887  -0.04620  -0.02176  -0.02080
 Alpha virt. eigenvalues --   -0.01706  -0.01117  -0.00646  -0.00419  -0.00024
 Alpha virt. eigenvalues --    0.00235   0.00690   0.01025   0.01198   0.01557

 Mulliken atomic charges:
              1
     1  Si   0.970621
     2  H   -0.108955
     3  H   -0.009821
     4  C   -0.674111
     5  C   -0.554950
     6  C   -0.188704
     7  C   -0.195238
     8  C   -1.362786
     9  N    0.055849
    10  C   -0.854424
    11  C    0.107189
    12  C   -0.611461
    13  C    0.471243
    14  C   -0.412072
    15  C    0.039332
    16  S    0.073554
    17  C    0.189638
    18  N   -0.344169
    19  S    0.989442
    20  N   -0.356074
    21  C    0.756617
    22  C    0.549744
    23  C   -0.056344
    24  C   -0.095680
    25  C   -0.391457
    26  C    0.667939
    27  C   -0.155955
    28  C   -0.107242
    29  C   -0.373571
    30  C   -0.810799
    31  C    0.488937
    32  H    0.252690
    33  H    0.196016
    34  H    0.225103
    35  H    0.197436
    36  H    0.202246
    37  H    0.247895
    38  H    0.137277
    39  H    0.123051
    40  H    0.115628
    41  H    0.197054
    42  H    0.076469
    43  H    0.123318
    44  H    0.076088
    45  H    0.098228
    46  H    0.107921
    47  H    0.146995
    48  H   -0.219708
 Sum of Mulliken atomic charges =  -0.00000

 Dipole moment (field-independent basis, Debye):
    X=              0.5568    Y=             -0.4277    Z=             -0.1655  Tot=              0.7213
 Quadrupole moment (field-independent basis, Debye-Ang):
   XX=           -179.6284   YY=           -180.2040   ZZ=           -195.8599
   XY=             -5.4437   XZ=              0.4355   YZ=             -4.3938

  Exact polarizability: 542.671 -39.822 367.052  15.578 -10.882 237.085
 Approx polarizability: 759.055 -59.097 671.632  48.521 -15.978 407.405

                     1                      2                      3
                     A                      A                      A
 Frequencies --    11.4965                17.9966                25.5507
 Red. masses --     6.1558                 7.2582                 6.7203
 Frc consts  --     0.0005                 0.0014                 0.0026
 IR Inten    --     0.0020                 0.0054                 0.0515

                     4                      5                      6
                     A                      A                      A
 Frequencies --    32.1926                50.4138                63.3759
 Red. masses --     6.8401                 5.3987                 4.6394
 Frc consts  --     0.0042                 0.0081                 0.0110
 IR Inten    --     0.2126                 0.2096                 0.1540

                     7                      8                      9
                     A                      A                      A
 Frequencies --    73.7193                95.8984               110.8110
 Red. masses --     6.0147                 5.1649                 5.8185
 Frc consts  --     0.0193                 0.0280                 0.0421
 IR Inten    --     0.2974                 0.2994                 1.2265

                    10                     11                     12
                     A                      A                      A
 Frequencies --   137.2305               157.7304               173.7756
 Red. masses --     7.4682                 4.8927                 4.4218
 Frc consts  --     0.0829                 0.0717                 0.0787
 IR Inten    --     0.1939                 0.0895                 0.8609

                    13                     14                     15
                     A                      A                      A
 Frequencies --   179.1974               191.3646               211.6966
 Red. masses --     3.7871                 7.7150                 3.3978
 Frc consts  --     0.0716                 0.1665                 0.0897
 IR Inten    --     1.5770                 0.2764                 0.1277

                    16                     17                     18
                     A                      A                      A
 Frequencies --   225.2405               257.5473               266.7438
 Red. masses --     3.8456                 4.9999                 6.0544
 Frc consts  --     0.1149                 0.1954                 0.2538
 IR Inten    --     0.1233                 0.9605                 2.0936

                    19                     20                     21
                     A                      A                      A
 Frequencies --   280.2722               293.1178               322.7395
 Red. masses --     5.1283                 4.2391                 3.7185
 Frc consts  --     0.2373                 0.2146                 0.2282
 IR Inten    --     2.5191                 1.9906                 1.3398

                    22                     23                     24
                     A                      A                      A
 Frequencies --   363.6936               399.3608               431.8805
 Red. masses --     2.9592                 5.8916                 3.4127
 Frc consts  --     0.2306                 0.5536                 0.3750
 IR Inten    --     0.5752                 4.6259                 6.6410

                    25                     26                     27
                     A                      A                      A
 Frequencies --   450.3307               472.1132               482.7698
 Red. masses --     3.2776                 6.5152                 3.3849
 Frc consts  --     0.3916                 0.8556                 0.4648
 IR Inten    --     4.4277                 5.3465                 0.8498

                    28                     29                     30
                     A                      A                      A
 Frequencies --   486.6693               492.7952               513.2385
 Red. masses --     4.2901                 5.1905                 7.1794
 Frc consts  --     0.5987                 0.7427                 1.1142
 IR Inten    --     3.5571                 3.1640                 6.8847

                    31                     32                     33
                     A                      A                      A
 Frequencies --   521.5910               530.6695               531.5389
 Red. masses --     4.5888                 8.4139                 3.2615
 Frc consts  --     0.7355                 1.3960                 0.5429
 IR Inten    --     9.2498                 3.3141                 9.7721

                    34                     35                     36
                     A                      A                      A
 Frequencies --   537.9351               577.9337               581.3672
 Red. masses --     5.7470                 3.9958                 3.0784
 Frc consts  --     0.9798                 0.7863                 0.6130
 IR Inten    --     0.9985                 4.0569                 4.7748

                    37                     38                     39
                     A                      A                      A
 Frequencies --   589.0096               599.7233               614.2056
 Red. masses --     2.3628                 4.3978                 5.7030
 Frc consts  --     0.4830                 0.9319                 1.2676
 IR Inten    --     1.7306                 3.4756                 8.6304

                    40                     41                     42
                     A                      A                      A
 Frequencies --   639.1233               645.1525               657.8533
 Red. masses --     2.9850                 5.1207                 2.9919
 Frc consts  --     0.7184                 1.2558                 0.7629
 IR Inten    --     1.6548                 3.4076                 1.3699

                    43                     44                     45
                     A                      A                      A
 Frequencies --   688.7203               700.7888               706.9535
 Red. masses --     4.3808                 3.9817                 1.2264
 Frc consts  --     1.2243                 1.1521                 0.3611
 IR Inten    --     3.2549                34.1374                85.5145

                    46                     47                     48
                     A                      A                      A
 Frequencies --   708.9295               729.7817               742.4576
 Red. masses --     2.5121                 2.5173                 1.3119
 Frc consts  --     0.7438                 0.7899                 0.4261
 IR Inten    --     5.4389                45.6623                 1.6468

                    49                     50                     51
                     A                      A                      A
 Frequencies --   746.0062               758.2690               769.8541
 Red. masses --     5.1876                 3.2960                 2.4837
 Frc consts  --     1.7010                 1.1166                 0.8673
 IR Inten    --    26.9618                25.0276               112.1520

                    52                     53                     54
                     A                      A                      A
 Frequencies --   792.3420               803.3989               806.6905
 Red. masses --     1.7728                 4.3744                 2.9826
 Frc consts  --     0.6557                 1.6635                 1.1435
 IR Inten    --    71.6962                 2.7321                26.4669

                    55                     56                     57
                     A                      A                      A
 Frequencies --   810.1448               821.6330               836.1209
 Red. masses --     2.8276                 2.7982                 4.3106
 Frc consts  --     1.0934                 1.1130                 1.7755
 IR Inten    --    10.2521                32.2167                13.5070

                    58                     59                     60
                     A                      A                      A
 Frequencies --   838.2324               843.6568               848.4967
 Red. masses --     1.6653                 2.2812                 8.0564
 Frc consts  --     0.6894                 0.9566                 3.4174
 IR Inten    --     3.8417               103.5486                47.2527

                    61                     62                     63
                     A                      A                      A
 Frequencies --   857.0237               869.5332               883.2766
 Red. masses --     4.4669                 2.1553                 2.6191
 Frc consts  --     1.9331                 0.9601                 1.2039
 IR Inten    --    47.3633                11.6064                 2.7551

                    64                     65                     66
                     A                      A                      A
 Frequencies --   910.1856               913.2436               914.9978
 Red. masses --     4.1904                 3.5703                 1.3406
 Frc consts  --     2.0453                 1.7544                 0.6613
 IR Inten    --    32.5819                 3.7504                 0.0506

                    67                     68                     69
                     A                      A                      A
 Frequencies --   915.8602               938.0001               963.4796
 Red. masses --     1.6664                 1.4968                 1.2534
 Frc consts  --     0.8235                 0.7759                 0.6855
 IR Inten    --     2.2870                 8.7119                21.9240

                    70                     71                     72
                     A                      A                      A
 Frequencies --   967.0620               983.6860               989.6424
 Red. masses --     1.1784                 1.3306                 2.3025
 Frc consts  --     0.6493                 0.7586                 1.3286
 IR Inten    --    47.4501                 0.3494                16.8511

                    73                     74                     75
                     A                      A                      A
 Frequencies --   994.7466              1016.3161              1029.9970
 Red. masses --     1.3368                 3.0050                 2.9408
 Frc consts  --     0.7794                 1.8288                 1.8382
 IR Inten    --     2.0875                 1.3681                30.1527

                    76                     77                     78
                     A                      A                      A
 Frequencies --  1048.0543              1068.1822              1073.1437
 Red. masses --     2.6713                 2.5050                 1.9735
 Frc consts  --     1.7288                 1.6840                 1.3390
 IR Inten    --     7.4611                 8.7012                 7.1666

                    79                     80                     81
                     A                      A                      A
 Frequencies --  1087.5828              1100.2756              1106.5046
 Red. masses --     2.1367                 1.4837                 1.3105
 Frc consts  --     1.4891                 1.0583                 0.9453
 IR Inten    --    29.0954                29.8663                 7.1363

                    82                     83                     84
                     A                      A                      A
 Frequencies --  1108.1588              1146.9803              1169.8248
 Red. masses --     2.1226                 2.9542                 1.3484
 Frc consts  --     1.5358                 2.2898                 1.0872
 IR Inten    --     7.3357                47.4569                 0.6512

                    85                     86                     87
                     A                      A                      A
 Frequencies --  1177.4558              1186.8809              1193.0399
 Red. masses --     1.2953                 1.2424                 1.3075
 Frc consts  --     1.0581                 1.0312                 1.0965
 IR Inten    --     6.0012                 4.3022                 6.4722

                    88                     89                     90
                     A                      A                      A
 Frequencies --  1210.5417              1240.6496              1246.6672
 Red. masses --     1.3260                 2.2169                 1.4475
 Frc consts  --     1.1449                 2.0104                 1.3254
 IR Inten    --    14.1245                 6.2292                22.0185

                    91                     92                     93
                     A                      A                      A
 Frequencies --  1249.6899              1254.4778              1263.2535
 Red. masses --     2.4222                 1.7485                 1.5203
 Frc consts  --     2.2288                 1.6212                 1.4294
 IR Inten    --     5.4611                 2.5058                 5.2121

                    94                     95                     96
                     A                      A                      A
 Frequencies --  1287.0997              1303.6583              1322.0590
 Red. masses --     1.6460                 1.8391                 1.8764
 Frc consts  --     1.6066                 1.8415                 1.9323
 IR Inten    --     3.6413                 8.2368                 5.6871

                    97                     98                     99
                     A                      A                      A
 Frequencies --  1339.9582              1346.2325              1356.1873
 Red. masses --     1.7130                 1.3267                 1.6565
 Frc consts  --     1.8122                 1.4167                 1.7951
 IR Inten    --    52.6541                10.1999                29.7915

                   100                    101                    102
                     A                      A                      A
 Frequencies --  1363.1710              1367.3559              1395.0038
 Red. masses --     3.9460                 3.2956                 3.7524
 Frc consts  --     4.3202                 3.6304                 4.3024
 IR Inten    --     0.9753                 3.1682                 3.8349

                   103                    104                    105
                     A                      A                      A
 Frequencies --  1401.0462              1405.2978              1415.5515
 Red. masses --     3.2077                 3.1685                 3.9587
 Frc consts  --     3.7098                 3.6867                 4.6736
 IR Inten    --     3.9899                18.7880                41.7685

                   106                    107                    108
                     A                      A                      A
 Frequencies --  1427.1613              1474.8806              1477.8157
 Red. masses --     1.9702                 6.0769                 2.1024
 Frc consts  --     2.3643                 7.7883                 2.7052
 IR Inten    --    20.4512                23.5449                 2.7857

                   109                    110                    111
                     A                      A                      A
 Frequencies --  1485.6314              1494.4120              1499.0758
 Red. masses --     1.0960                 2.1732                 1.2056
 Frc consts  --     1.4252                 2.8595                 1.5962
 IR Inten    --     7.0458                 1.2092                18.0415

                   112                    113                    114
                     A                      A                      A
 Frequencies --  1512.3909              1549.3971              1553.3328
 Red. masses --     4.8680                 5.6378                 3.3707
 Frc consts  --     6.5603                 7.9742                 4.7918
 IR Inten    --   181.9403                21.5207                 8.9714

                   115                    116                    117
                     A                      A                      A
 Frequencies --  1573.6785              1593.8432              1619.7793
 Red. masses --     5.6208                 6.3735                 6.8801
 Frc consts  --     8.2013                 9.5394                10.6354
 IR Inten    --     3.4485                35.6748                15.3183

                   118                    119                    120
                     A                      A                      A
 Frequencies --  1639.7569              1667.1656              2227.4225
 Red. masses --     5.0097                 5.8648                 1.0305
 Frc consts  --     7.9363                 9.6042                 3.0122
 IR Inten    --     4.9524                 0.3213               100.8242

                   121                    122                    123
                     A                      A                      A
 Frequencies --  2236.2695              3032.6182              3041.8579
 Red. masses --     1.0521                 1.0648                 1.0826
 Frc consts  --     3.0998                 5.7698                 5.9021
 IR Inten    --   136.7141                38.7023                 7.4571

                   124                    125                    126
                     A                      A                      A
 Frequencies --  3072.5384              3081.1316              3087.9528
 Red. masses --     1.0660                 1.0941                 1.0847
 Frc consts  --     5.9293                 6.1197                 6.0942
 IR Inten    --    25.6976                23.6255                 4.4092

                   127                    128                    129
                     A                      A                      A
 Frequencies --  3121.9283              3171.0895              3174.2729
 Red. masses --     1.1047                 1.0867                 1.0868
 Frc consts  --     6.3435                 6.4382                 6.4517
 IR Inten    --    28.8262                 9.0704                 0.8798

                   130                    131                    132
                     A                      A                      A
 Frequencies --  3180.6060              3186.1455              3193.4858
 Red. masses --     1.0892                 1.0899                 1.0901
 Frc consts  --     6.4919                 6.5190                 6.5502
 IR Inten    --    13.0244                16.2237                22.8862

                   133                    134                    135
                     A                      A                      A
 Frequencies --  3199.1441              3201.8848              3216.4589
 Red. masses --     1.0968                 1.0960                 1.0882
 Frc consts  --     6.6137                 6.6202                 6.6332
 IR Inten    --    32.5532                30.5740                 5.4853

                   136                    137                    138
                     A                      A                      A
 Frequencies --  3229.9748              3239.0967              3261.3141
 Red. masses --     1.0952                 1.0904                 1.0975
 Frc consts  --     6.7321                 6.7406                 6.8777
 IR Inten    --     5.9558                 9.4703                 0.3835

 - Thermochemistry -
 -------------------
 Temperature   298.150 Kelvin.  Pressure   1.00000 Atm.
 Atom     1 has atomic number 14 and mass  27.97693

 Molecular mass:   429.07897 amu.
 Principal axes and moments of inertia in atomic units:
                           1         2         3
     Eigenvalues --  5295.70808********************
           X            0.99998  -0.00659  -0.00025
           Y            0.00659   0.99977  -0.02023
           Z            0.00038   0.02023   0.99980
 This molecule is an asymmetric top.
 Rotational symmetry number  1.
 Warning -- assumption of classical behavior for rotation
           may cause significant error
 Rotational temperatures (Kelvin)      0.01636     0.00272     0.00248
 Rotational constants (GHZ):           0.34079     0.05676     0.05174
 Zero-point vibrational energy     953149.1 (Joules/Mol)
                                  227.80811 (Kcal/Mol)
 Warning -- explicit consideration of  39 degrees of freedom as
           vibrations may cause significant error
 Vibrational temperatures:     16.54    25.89    36.76    46.32    72.53
          (Kelvin)             91.18   106.07   137.98   159.43   197.44
                              226.94   250.02   257.82   275.33   304.58
                              324.07   370.55   383.78   403.25   421.73
                              464.35   523.27   574.59   621.38   647.92
                              679.26   694.60   700.21   709.02   738.43
                              750.45   763.51   764.76   773.97   831.52
                              836.46   847.45   862.87   883.70   919.55
                              928.23   946.50   990.91  1008.28  1017.15
                             1019.99  1049.99  1068.23  1073.34  1090.98
                             1107.65  1140.00  1155.91  1160.65  1165.62
                             1182.15  1202.99  1206.03  1213.83  1220.80
                             1233.06  1251.06  1270.84  1309.55  1313.95
                             1316.48  1317.72  1349.57  1386.23  1391.38
                             1415.30  1423.87  1431.22  1462.25  1481.93
                             1507.91  1536.87  1544.01  1564.79  1583.05
                             1592.01  1594.39  1650.25  1683.11  1694.09
                             1707.65  1716.52  1741.70  1785.02  1793.67
                             1798.02  1804.91  1817.54  1851.85  1875.67
                             1902.15  1927.90  1936.93  1951.25  1961.30
                             1967.32  2007.10  2015.79  2021.91  2036.66
                             2053.36  2122.02  2126.24  2137.49  2150.12
                             2156.83  2175.99  2229.23  2234.90  2264.17
                             2293.18  2330.50  2359.24  2398.68  3204.76
                             3217.49  4363.26  4376.55  4420.69  4433.06
                             4442.87  4491.75  4562.48  4567.07  4576.18
                             4584.15  4594.71  4602.85  4606.79  4627.76
                             4647.21  4660.33  4692.30

 Zero-point correction=                           0.363035 (Hartree/Particle)
 Thermal correction to Energy=                    0.386875
 Thermal correction to Enthalpy=                  0.387819
 Thermal correction to Gibbs Free Energy=         0.306279
 Sum of electronic and zero-point Energies=          -2137.700940
 Sum of electronic and thermal Energies=             -2137.677100
 Sum of electronic and thermal Enthalpies=           -2137.676156
 Sum of electronic and thermal Free Energies=        -2137.757696

                     E (Thermal)             CV                S
                      KCal/Mol        Cal/Mol-Kelvin    Cal/Mol-Kelvin
 Total                  242.768             96.068            171.616
 Electronic               0.000              0.000              0.000
 Translational            0.889              2.981             44.060
 Rotational               0.889              2.981             37.016
 Vibrational            240.990             90.106             90.540
 Vibration     1          0.593              1.987              7.734
 Vibration     2          0.593              1.986              6.844
 Vibration     3          0.593              1.985              6.148
 Vibration     4          0.594              1.983              5.690
 Vibration     5          0.595              1.977              4.801
 Vibration     6          0.597              1.972              4.349
 Vibration     7          0.599              1.966              4.052
 Vibration     8          0.603              1.952              3.536
 Vibration     9          0.607              1.941              3.255
 Vibration    10          0.614              1.916              2.842
 Vibration    11          0.621              1.894              2.577
 Vibration    12          0.627              1.875              2.394
 Vibration    13          0.629              1.868              2.337
 Vibration    14          0.634              1.852              2.215
 Vibration    15          0.643              1.823              2.029
 Vibration    16          0.650              1.803              1.917
 Vibration    17          0.667              1.750              1.678
 Vibration    18          0.672              1.734              1.617
 Vibration    19          0.680              1.710              1.532
 Vibration    20          0.688              1.687              1.456
 Vibration    21          0.708              1.630              1.296
 Vibration    22          0.737              1.547              1.106
 Vibration    23          0.765              1.471              0.965
 Vibration    24          0.793              1.401              0.853
 Vibration    25          0.809              1.360              0.795
 Vibration    26          0.829              1.312              0.732
 Vibration    27          0.839              1.288              0.703
 Vibration    28          0.843              1.280              0.692
 Vibration    29          0.848              1.266              0.676
 Vibration    30          0.868              1.221              0.626
 Vibration    31          0.877              1.202              0.606
 Vibration    32          0.886              1.182              0.586
 Vibration    33          0.887              1.180              0.584
 Vibration    34          0.893              1.166              0.570
 Vibration    35          0.934              1.079              0.489
 Vibration    36          0.938              1.072              0.483
 Vibration    37          0.946              1.055              0.469
 Vibration    38          0.958              1.032              0.450
 Vibration    39          0.974              1.002              0.426

 Normal termination of Gaussian 09 at Sun Dec 29 08:56:26 2013.
