 Gaussian 09, Revision C.01,
 Gaussian 09:  EM64L-G09RevC.01 23-Sep-2011

 --------------------------------------------
 #B3LYP/6-31++G(d,p) opt scf=direct freq test
 --------------------------------------------

 Geom opt of No.42 candidate from the CEPDB database with SMILE code of
  C1ccc2c1csc2-c1cnc(-c2ncc(s2)-c2scc3ccCc23)c2nsnc12, HPC, 20131227, S
 huo Dai, Gaussian09
 ----------------------------------------------------------------------
 Charge =  0 Multiplicity = 1

 SCF Done:  E(RB3LYP) =  -2657.27712339     A.U. after   24 cycles
 SCF Done:  E(RB3LYP) =  -2657.30337323     A.U. after   17 cycles
 SCF Done:  E(RB3LYP) =  -2657.30724325     A.U. after   14 cycles
 SCF Done:  E(RB3LYP) =  -2657.30750893     A.U. after   13 cycles
 SCF Done:  E(RB3LYP) =  -2657.30756622     A.U. after   12 cycles
 SCF Done:  E(RB3LYP) =  -2657.30759150     A.U. after   12 cycles
 SCF Done:  E(RB3LYP) =  -2657.30762910     A.U. after   13 cycles
 SCF Done:  E(RB3LYP) =  -2657.30696569     A.U. after   19 cycles
 SCF Done:  E(RB3LYP) =  -2657.30769887     A.U. after   17 cycles
 SCF Done:  E(RB3LYP) =  -2657.30787390     A.U. after   17 cycles
 SCF Done:  E(RB3LYP) =  -2657.30865099     A.U. after   17 cycles
 SCF Done:  E(RB3LYP) =  -2657.30865172     A.U. after   21 cycles
 SCF Done:  E(RB3LYP) =  -2657.30865208     A.U. after   16 cycles
 SCF Done:  E(RB3LYP) =  -2657.30865215     A.U. after   11 cycles
 SCF Done:  E(RB3LYP) =  -2657.30865220     A.U. after   11 cycles
 SCF Done:  E(RB3LYP) =  -2657.30865225     A.U. after   11 cycles
 SCF Done:  E(RB3LYP) =  -2657.30865232     A.U. after   11 cycles
 SCF Done:  E(RB3LYP) =  -2657.30865235     A.U. after   11 cycles
 SCF Done:  E(RB3LYP) =  -2657.30865238     A.U. after   10 cycles
 Optimization completed.
    -- Stationary point found.

 1\1\GINC-N013\FOpt\RB3LYP\6-31++G(d,p)\C22H12N4S4\SHUO\29-Dec-2013\0\\
 #B3LYP/6-31++G(d,p) opt scf=direct freq test\\Geom opt of No.42 candid
 ate from the CEPDB database with SMILE code of C1ccc2c1csc2-c1cnc(-c2n
 cc(s2)-c2scc3ccCc23)c2nsnc12, HPC, 20131227, Shuo Dai, Gaussian09\\0,1
 \C,-1.391414387,1.5777774361,0.1574054721\C,-2.0235197526,0.2974535545
 ,0.6706423538\C,-1.1683920963,-0.7486691456,0.6038028473\C,0.106567448
 2,-0.2969596542,0.04549919\C,-0.0050382697,1.1083261443,-0.2139197904\
 C,1.145488043,1.6595344373,-0.6959322983\S,2.4085022801,0.4711067508,-

 Normal termination of Gaussian 09 at Sun Dec 29 10:46:08 2013.

 ----------------------------------------------------------------------
 #N Geom=AllCheck Guess=TCheck SCRF=Check Test GenChk RB3LYP/6-31++G(d,
 p) Freq
 ----------------------------------------------------------------------

 Geom opt of No.42 candidate from the CEPDB database with SMILE code of
  C1ccc2c1csc2-c1cnc(-c2ncc(s2)-c2scc3ccCc23)c2nsnc12, HPC, 20131227, S
 huo Dai, Gaussian09
 ----------------------------------------------------------------------
 Charge =  0 Multiplicity = 1

                         Standard orientation:
 ---------------------------------------------------------------------
 Center     Atomic      Atomic             Coordinates (Angstroms)
 Number     Number       Type             X           Y           Z
 ---------------------------------------------------------------------
      1          6           0        6.821771    3.128779    0.357729
      2          6           0        5.529306    3.750604    0.852772
      3          6           0        4.486285    2.895474    0.748162
      4          6           0        4.952362    1.630655    0.178713
      5          6           0        6.362915    1.748303   -0.047294
      6          6           0        6.926565    0.606732   -0.536162
      7         16           0        5.743327   -0.655332   -0.713915
      8          6           0        4.432284    0.384968   -0.146173
      9          6           0        3.047246   -0.056701   -0.113291
     10          6           0        1.986311    0.842010   -0.201984
     11          7           0        0.671184    0.530721   -0.138467
     12          6           0        0.258684   -0.722738   -0.007027
     13          6           0       -1.179200   -0.933805    0.054404
     14          7           0       -1.800060   -2.078918    0.207385
     15          6           0       -3.148044   -1.916737    0.222084
     16          6           0       -3.621592   -0.620566    0.078933
     17         16           0       -2.257239    0.461322   -0.083628
     18          6           0       -4.989953   -0.156773    0.056419
     19         16           0       -6.330068   -1.295854    0.264434
     20          6           0       -7.524887   -0.038659    0.117450
     21          6           0       -6.926896    1.178334   -0.078146
     22          6           0       -7.324423    2.572756   -0.270803
     23          6           0       -6.215999    3.330816   -0.416255
     24          6           0       -4.945189    2.501375   -0.332973
     25          6           0       -5.494700    1.111924   -0.112234
     26          6           0        1.235798   -1.781160    0.055399
     27          7           0        1.016646   -3.096453    0.158560
     28         16           0        2.489147   -3.813384    0.184227
     29          7           0        3.456898   -2.490457    0.069986
     30          6           0        2.643770   -1.430179    0.002874
     31          1           0        7.586894    3.107708    1.145490
     32          1           0        7.251156    3.694473   -0.480581
     33          1           0        5.474494    4.759657    1.246210
     34          1           0        3.471108    3.112557    1.056168
     35          1           0        7.960237    0.403857   -0.784917
     36          1           0        2.191906    1.895840   -0.354848
     37          1           0       -3.781328   -2.788613    0.341346
     38          1           0       -8.574702   -0.289086    0.185944
     39          1           0       -8.346977    2.931200   -0.292087
     40          1           0       -6.202613    4.403559   -0.574339
     41          1           0       -4.293858    2.834864    0.487103
     42          1           0       -4.346154    2.579237   -1.251206
 ---------------------------------------------------------------------

 SCF Done:  E(RB3LYP) =  -2657.30865238     A.U. after    6 cycles

 The electronic state is 1-A.
 Alpha  occ. eigenvalues --  -88.98988 -88.92526 -88.92202 -88.91813 -14.38724
 Alpha  occ. eigenvalues --  -14.38507 -14.35696 -14.34853 -10.26395 -10.26316
 Alpha  occ. eigenvalues --  -10.26246 -10.26110 -10.24648 -10.24367 -10.24092
 Alpha  occ. eigenvalues --  -10.23755 -10.23641 -10.22879 -10.22827 -10.22534
 Alpha  occ. eigenvalues --  -10.21395 -10.21388 -10.21117 -10.21091 -10.21057
 Alpha  occ. eigenvalues --  -10.20968 -10.20923 -10.20874 -10.20770 -10.20715
 Alpha  occ. eigenvalues --   -8.04295  -7.98376  -7.98083  -7.97617  -6.00849
 Alpha  occ. eigenvalues --   -6.00261  -6.00065  -5.94789  -5.94538  -5.94435
 Alpha  occ. eigenvalues --   -5.94142  -5.94096  -5.94069  -5.93763  -5.93665
 Alpha  occ. eigenvalues --   -5.93318  -1.03612  -0.97998  -0.95906  -0.91214
 Alpha  occ. eigenvalues --   -0.90769  -0.90200  -0.84354  -0.84305  -0.82084
 Alpha  occ. eigenvalues --   -0.81589  -0.80014  -0.77015  -0.75217  -0.73724
 Alpha  occ. eigenvalues --   -0.71806  -0.71678  -0.70462  -0.69054  -0.67448
 Alpha  occ. eigenvalues --   -0.64524  -0.63535  -0.61628  -0.59499  -0.58376
 Alpha  occ. eigenvalues --   -0.57435  -0.56672  -0.55952  -0.53452  -0.53316
 Alpha  occ. eigenvalues --   -0.52707  -0.51901  -0.51287  -0.50859  -0.47208
 Alpha  occ. eigenvalues --   -0.46870  -0.46110  -0.45697  -0.45590  -0.43906
 Alpha  occ. eigenvalues --   -0.43046  -0.42986  -0.42794  -0.42172  -0.41820
 Alpha  occ. eigenvalues --   -0.40715  -0.40188  -0.40030  -0.39648  -0.39060
 Alpha  occ. eigenvalues --   -0.38971  -0.38641  -0.38468  -0.37854  -0.37740
 Alpha  occ. eigenvalues --   -0.36311  -0.34835  -0.34417  -0.33708  -0.33614
 Alpha  occ. eigenvalues --   -0.32231  -0.31415  -0.30803  -0.29818  -0.29316
 Alpha  occ. eigenvalues --   -0.28566  -0.28477  -0.27485  -0.26753  -0.24328
 Alpha  occ. eigenvalues --   -0.23809  -0.22392  -0.20211
 Alpha virt. eigenvalues --   -0.11604  -0.06725  -0.05039  -0.03415  -0.01785
 Alpha virt. eigenvalues --   -0.01368  -0.01039  -0.00974  -0.00850  -0.00712
 Alpha virt. eigenvalues --   -0.00344   0.00105   0.00626   0.01054   0.01300

 Mulliken atomic charges:
              1
     1  C   -1.131940
     2  C    0.398190
     3  C   -0.940305
     4  C    0.387576
     5  C    0.466873
     6  C    0.147393
     7  S    0.164854
     8  C   -0.227745
     9  C   -0.132638
    10  C   -0.325015
    11  N   -0.126429
    12  C   -0.314009
    13  C   -0.623444
    14  N   -0.026408
    15  C    0.216902
    16  C   -0.045224
    17  S    0.579356
    18  C    0.366180
    19  S   -0.038493
    20  C    0.092601
    21  C   -0.292012
    22  C   -0.474953
    23  C   -0.082324
    24  C   -0.793734
    25  C    0.432087
    26  C    0.211019
    27  N   -0.392821
    28  S    1.036546
    29  N   -0.356673
    30  C   -0.008892
    31  H    0.167724
    32  H    0.170506
    33  H    0.135170
    34  H    0.107493
    35  H    0.174518
    36  H    0.155100
    37  H    0.159138
    38  H    0.179260
    39  H    0.099281
    40  H    0.135542
    41  H    0.173931
    42  H    0.175819
 Sum of Mulliken atomic charges =  -0.00000

 Dipole moment (field-independent basis, Debye):
    X=              0.7912    Y=              3.6187    Z=              0.0665  Tot=              3.7047
 Quadrupole moment (field-independent basis, Debye-Ang):
   XX=           -158.5455   YY=           -186.3415   ZZ=           -205.0682
   XY=              3.2289   XZ=              1.1310   YZ=              1.0798

  Exact polarizability: 833.373  31.355 437.990  -5.736   2.028 187.269
 Approx polarizability:1214.904  74.002 822.684 -21.250  -2.392 317.611

                     1                      2                      3
                     A                      A                      A
 Frequencies --     9.5606                20.6809                28.9814
 Red. masses --     7.1147                 8.2058                 8.7338
 Frc consts  --     0.0004                 0.0021                 0.0043
 IR Inten    --     0.1250                 0.1866                 0.4161

                     4                      5                      6
                     A                      A                      A
 Frequencies --    32.5221                39.8274                62.4415
 Red. masses --     7.1627                 6.9942                 7.4010
 Frc consts  --     0.0045                 0.0065                 0.0170
 IR Inten    --     0.6310                 0.0454                 0.2010

                     7                      8                      9
                     A                      A                      A
 Frequencies --    76.6796               101.7752               114.2625
 Red. masses --     6.2161                 5.9346                 8.5595
 Frc consts  --     0.0215                 0.0362                 0.0658
 IR Inten    --     0.5937                 0.6353                 1.3726

                    10                     11                     12
                     A                      A                      A
 Frequencies --   148.7029               154.1532               166.6256
 Red. masses --    10.3459                 5.6255                 5.6960
 Frc consts  --     0.1348                 0.0788                 0.0932
 IR Inten    --     0.2036                 0.2498                 0.1486

                    13                     14                     15
                     A                      A                      A
 Frequencies --   187.0342               198.6262               205.5434
 Red. masses --     9.1997                 5.9769                 6.5313
 Frc consts  --     0.1896                 0.1389                 0.1626
 IR Inten    --     0.5357                 1.5894                 1.9606

                    16                     17                     18
                     A                      A                      A
 Frequencies --   209.0895               238.8940               251.5622
 Red. masses --     5.7387                 5.8076                 5.1919
 Frc consts  --     0.1478                 0.1953                 0.1936
 IR Inten    --     0.5010                 1.6150                 0.6974

                    19                     20                     21
                     A                      A                      A
 Frequencies --   273.6992               295.3425               315.5084
 Red. masses --     3.6419                 8.4604                 4.5404
 Frc consts  --     0.1607                 0.4348                 0.2663
 IR Inten    --     2.8446                 1.6681                 3.7236

                    22                     23                     24
                     A                      A                      A
 Frequencies --   324.4993               389.4399               409.8666
 Red. masses --    12.6611                 6.2469                 8.4657
 Frc consts  --     0.7855                 0.5582                 0.8379
 IR Inten    --     8.1828                 0.1286                 0.8281

                    25                     26                     27
                     A                      A                      A
 Frequencies --   418.4246               428.9511               438.4361
 Red. masses --     2.5547                 2.7257                 4.0498
 Frc consts  --     0.2635                 0.2955                 0.4587
 IR Inten    --     5.3615                 9.5874                 9.8108

                    28                     29                     30
                     A                      A                      A
 Frequencies --   457.5886               469.1482               501.2891
 Red. masses --     6.6535                 5.6937                 5.5421
 Frc consts  --     0.8208                 0.7384                 0.8205
 IR Inten    --     1.3644                 3.7543                 0.4968

                    31                     32                     33
                     A                      A                      A
 Frequencies --   508.8547               511.5007               517.4789
 Red. masses --     9.7057                10.2339                10.5554
 Frc consts  --     1.4807                 1.5775                 1.6654
 IR Inten    --     4.0570                 2.4117                 8.3074

                    34                     35                     36
                     A                      A                      A
 Frequencies --   535.6673               552.7195               578.8813
 Red. masses --     9.6732                10.9216                 5.8164
 Frc consts  --     1.6353                 1.9658                 1.1484
 IR Inten    --     7.1369                 0.6276                 3.5226

                    37                     38                     39
                     A                      A                      A
 Frequencies --   608.4650               624.9344               633.5081
 Red. masses --     5.5092                 5.6812                 8.6276
 Frc consts  --     1.2017                 1.3072                 2.0401
 IR Inten    --    12.3037                 3.8141                17.6329

                    40                     41                     42
                     A                      A                      A
 Frequencies --   661.4402               675.5861               684.3032
 Red. masses --    11.3957                 2.3408                 2.2852
 Frc consts  --     2.9375                 0.6295                 0.6305
 IR Inten    --     0.0573                18.5383                12.1883

                    43                     44                     45
                     A                      A                      A
 Frequencies --   697.0348               699.8075               708.0179
 Red. masses --     5.9695                 5.7020                 5.8625
 Frc consts  --     1.7088                 1.6453                 1.7315
 IR Inten    --     8.2075                10.4128                17.4433

                    46                     47                     48
                     A                      A                      A
 Frequencies --   708.9052               730.5375               741.7462
 Red. masses --     1.2626                 9.3756                 1.5530
 Frc consts  --     0.3738                 2.9481                 0.5034
 IR Inten    --     3.6876                 0.6060                 1.4129

                    49                     50                     51
                     A                      A                      A
 Frequencies --   754.1985               766.9081               770.2572
 Red. masses --    10.1786                 1.7786                 1.6272
 Frc consts  --     3.4112                 0.6163                 0.5688
 IR Inten    --     8.2095                45.9011                51.7811

                    52                     53                     54
                     A                      A                      A
 Frequencies --   800.8534               801.8537               808.1289
 Red. masses --     8.8019                 6.2479                 9.0071
 Frc consts  --     3.3261                 2.3669                 3.4657
 IR Inten    --    14.3992                14.6158                 9.5438

                    55                     56                     57
                     A                      A                      A
 Frequencies --   832.0807               836.7773               840.1225
 Red. masses --     7.6873                 5.0163                 6.3923
 Frc consts  --     3.1359                 2.0694                 2.6582
 IR Inten    --    18.9130                25.4785                89.9287

                    58                     59                     60
                     A                      A                      A
 Frequencies --   846.7000               864.8605               865.6630
 Red. masses --    10.0027                 1.4234                 8.2345
 Frc consts  --     4.2250                 0.6273                 3.6357
 IR Inten    --    24.9990                13.5901                 9.6370

                    61                     62                     63
                     A                      A                      A
 Frequencies --   875.5189               907.2094               919.8457
 Red. masses --     7.1656                 4.4684                10.2501
 Frc consts  --     3.2362                 2.1668                 5.1099
 IR Inten    --     2.7212                 1.8746                30.7539

                    64                     65                     66
                     A                      A                      A
 Frequencies --   926.5081               937.2741               945.9678
 Red. masses --     3.3622                 1.6567                 2.1641
 Frc consts  --     1.7005                 0.8575                 1.1410
 IR Inten    --     8.8006                15.0330                 9.2736

                    67                     68                     69
                     A                      A                      A
 Frequencies --   946.9993               947.6358               953.5344
 Red. masses --     1.6912                 2.0638                 1.7990
 Frc consts  --     0.8936                 1.0919                 0.9637
 IR Inten    --     7.8564                13.6189                 4.7920

                    70                     71                     72
                     A                      A                      A
 Frequencies --   962.5431               965.0186              1040.6147
 Red. masses --     1.4961                 1.5394                 3.9076
 Frc consts  --     0.8167                 0.8446                 2.4931
 IR Inten    --     0.0028                 0.9013                 7.0578

                    73                     74                     75
                     A                      A                      A
 Frequencies --  1072.5309              1120.0785              1132.8131
 Red. masses --     2.6881                 3.7074                 1.3044
 Frc consts  --     1.8218                 2.7404                 0.9862
 IR Inten    --     0.9436                 4.7720                 1.7939

                    76                     77                     78
                     A                      A                      A
 Frequencies --  1141.1592              1150.4305              1152.9652
 Red. masses --     1.2913                 1.1252                 1.1194
 Frc consts  --     0.9907                 0.8774                 0.8767
 IR Inten    --     2.3032                 1.6964                 0.3381

                    79                     80                     81
                     A                      A                      A
 Frequencies --  1177.8536              1184.5338              1205.5572
 Red. masses --     1.8866                 1.5615                 2.2182
 Frc consts  --     1.5421                 1.2909                 1.8995
 IR Inten    --     3.8675                 3.2105                60.8835

                    82                     83                     84
                     A                      A                      A
 Frequencies --  1214.0057              1259.8327              1270.4075
 Red. masses --     3.8554                 3.7313                 1.9321
 Frc consts  --     3.3478                 3.4893                 1.8372
 IR Inten    --    18.1730                96.8411                 9.2178

                    85                     86                     87
                     A                      A                      A
 Frequencies --  1275.4536              1288.0765              1333.9634
 Red. masses --     1.7408                 3.9399                 2.9864
 Frc consts  --     1.6685                 3.8514                 3.1310
 IR Inten    --     1.8402                 2.7988                 4.5480

                    88                     89                     90
                     A                      A                      A
 Frequencies --  1343.8698              1345.6678              1353.6404
 Red. masses --     2.0481                 5.2962                 1.9404
 Frc consts  --     2.1793                 5.6505                 2.0948
 IR Inten    --     6.3590                 7.3010                20.2812

                    91                     92                     93
                     A                      A                      A
 Frequencies --  1362.9004              1370.6318              1387.0951
 Red. masses --     5.2585                 3.5354                 4.4580
 Frc consts  --     5.7550                 3.9131                 5.0537
 IR Inten    --    35.9053                 6.0443                 0.8028

                    94                     95                     96
                     A                      A                      A
 Frequencies --  1392.4486              1401.0491              1447.9801
 Red. masses --     5.3830                 5.0136                 1.2076
 Frc consts  --     6.1494                 5.7984                 1.4918
 IR Inten    --     6.9376                 5.6916                21.6645

                    97                     98                     99
                     A                      A                      A
 Frequencies --  1451.6621              1468.8179              1500.0484
 Red. masses --     1.1101                 4.1030                 7.0952
 Frc consts  --     1.3783                 5.2155                 9.4064
 IR Inten    --     6.6869               461.2229                47.5127

                   100                    101                    102
                     A                      A                      A
 Frequencies --  1529.9105              1533.9432              1545.0609
 Red. masses --     7.2436                 8.0074                 6.0341
 Frc consts  --     9.9893                11.1010                 8.4870
 IR Inten    --    43.9155               148.5727               248.9398

                   103                    104                    105
                     A                      A                      A
 Frequencies --  1564.1681              1579.3447              1596.7768
 Red. masses --     7.8917                 7.1292                 6.8286
 Frc consts  --    11.3760                10.4771                10.2581
 IR Inten    --    19.8063                25.2210                 3.3791

                   106                    107                    108
                     A                      A                      A
 Frequencies --  1604.8896              1621.7034              1636.3383
 Red. masses --     6.8633                 7.3669                 8.0993
 Frc consts  --    10.4154                11.4150                12.7774
 IR Inten    --     4.5775                34.2323                13.9178

                   109                    110                    111
                     A                      A                      A
 Frequencies --  3026.6067              3031.7778              3052.1674
 Red. masses --     1.0601                 1.0603                 1.1013
 Frc consts  --     5.7216                 5.7421                 6.0444
 IR Inten    --    11.3207                29.0229                 4.9804

                   112                    113                    114
                     A                      A                      A
 Frequencies --  3058.6257              3210.3440              3214.4573
 Red. masses --     1.1015                 1.0897                 1.0872
 Frc consts  --     6.0716                 6.6170                 6.6190
 IR Inten    --     6.8997                27.2648                 1.4543

                   115                    116                    117
                     A                      A                      A
 Frequencies --  3217.4883              3222.1600              3236.2231
 Red. masses --     1.0888                 1.0929                 1.1028
 Frc consts  --     6.6413                 6.6851                 6.8052
 IR Inten    --     2.2576                20.7007                27.0079

                   118                    119                    120
                     A                      A                      A
 Frequencies --  3242.6633              3248.8624              3260.1468
 Red. masses --     1.1006                 1.0943                 1.0941
 Frc consts  --     6.8184                 6.8051                 6.8515
 IR Inten    --     9.3491                 0.2940                 2.4559

 - Thermochemistry -
 -------------------
 Temperature   298.150 Kelvin.  Pressure   1.00000 Atm.
 Atom     1 has atomic number  6 and mass  12.00000

 Molecular mass:   459.99448 amu.
 Principal axes and moments of inertia in atomic units:
                           1         2         3
     Eigenvalues --  6811.12603********************
           X            0.99999   0.00391   0.00150
           Y           -0.00391   0.99999   0.00213
           Z           -0.00149  -0.00213   1.00000
 This molecule is an asymmetric top.
 Rotational symmetry number  1.
 Warning -- assumption of classical behavior for rotation
           may cause significant error
 Rotational temperatures (Kelvin)      0.01272     0.00241     0.00204
 Rotational constants (GHZ):           0.26497     0.05017     0.04258
 Zero-point vibrational energy     756666.4 (Joules/Mol)
                                  180.84762 (Kcal/Mol)
 Warning -- explicit consideration of  37 degrees of freedom as
           vibrations may cause significant error
 Vibrational temperatures:     13.76    29.76    41.70    46.79    57.30
          (Kelvin)             89.84   110.32   146.43   164.40   213.95
                              221.79   239.74   269.10   285.78   295.73
                              300.83   343.71   361.94   393.79   424.93
                              453.95   466.88   560.32   589.71   602.02
                              617.16   630.81   658.37   675.00   721.24
                              732.13   735.93   744.54   770.70   795.24
                              832.88   875.44   899.14   911.48   951.66
                              972.02   984.56  1002.88  1006.87  1018.68
                             1019.96  1051.08  1067.21  1085.12  1103.41
                             1108.23  1152.25  1153.69  1162.72  1197.18
                             1203.93  1208.75  1218.21  1244.34  1245.49
                             1259.67  1305.27  1323.45  1333.04  1348.53
                             1361.03  1362.52  1363.43  1371.92  1384.88
                             1388.44  1497.21  1543.13  1611.54  1629.86
                             1641.87  1655.21  1658.86  1694.67  1704.28
                             1734.53  1746.68  1812.62  1827.83  1835.09
                             1853.25  1919.27  1933.53  1936.11  1947.58
                             1960.91  1972.03  1995.72  2003.42  2015.79
                             2083.32  2088.62  2113.30  2158.23  2201.20
                             2207.00  2223.00  2250.49  2272.32  2297.40
                             2309.08  2333.27  2354.32  4354.61  4362.05
                             4391.38  4400.67  4618.96  4624.88  4629.24
                             4635.96  4656.20  4665.46  4674.38  4690.62

 Zero-point correction=                           0.288199 (Hartree/Particle)
 Thermal correction to Energy=                    0.311978
 Thermal correction to Enthalpy=                  0.312923
 Thermal correction to Gibbs Free Energy=         0.230866
 Sum of electronic and zero-point Energies=          -2657.020453
 Sum of electronic and thermal Energies=             -2656.996674
 Sum of electronic and thermal Enthalpies=           -2656.995730
 Sum of electronic and thermal Free Energies=        -2657.077786

                     E (Thermal)             CV                S
                      KCal/Mol        Cal/Mol-Kelvin    Cal/Mol-Kelvin
 Total                  195.769             93.305            172.703
 Electronic               0.000              0.000              0.000
 Translational            0.889              2.981             44.267
 Rotational               0.889              2.981             37.583
 Vibrational            193.992             87.343             90.853
 Vibration     1          0.593              1.987              8.100
 Vibration     2          0.593              1.986              6.568
 Vibration     3          0.593              1.984              5.898
 Vibration     4          0.594              1.983              5.669
 Vibration     5          0.594              1.981              5.268
 Vibration     6          0.597              1.972              4.379
 Vibration     7          0.599              1.965              3.974
 Vibration     8          0.604              1.948              3.420
 Vibration     9          0.607              1.938              3.195
 Vibration    10          0.618              1.904              2.689
 Vibration    11          0.620              1.898              2.620
 Vibration    12          0.624              1.884              2.473
 Vibration    13          0.632              1.858              2.257
 Vibration    14          0.637              1.842              2.146
 Vibration    15          0.640              1.832              2.083
 Vibration    16          0.642              1.827              2.052
 Vibration    17          0.657              1.781              1.811
 Vibration    18          0.664              1.760              1.720
 Vibration    19          0.676              1.722              1.573
 Vibration    20          0.690              1.682              1.443
 Vibration    21          0.703              1.644              1.333
 Vibration    22          0.709              1.626              1.287
 Vibration    23          0.757              1.493              1.002
 Vibration    24          0.774              1.449              0.927
 Vibration    25          0.781              1.430              0.897
 Vibration    26          0.790              1.407              0.862
 Vibration    27          0.799              1.386              0.832
 Vibration    28          0.816              1.344              0.773
 Vibration    29          0.826              1.318              0.740
 Vibration    30          0.857              1.247              0.655
 Vibration    31          0.864              1.230              0.636
 Vibration    32          0.867              1.225              0.630
 Vibration    33          0.872              1.211              0.616
 Vibration    34          0.891              1.171              0.575
 Vibration    35          0.908              1.134              0.539
 Vibration    36          0.935              1.077              0.487
 Vibration    37          0.967              1.014              0.435

 Optimization completed.
    -- Stationary point found.

 1\1\GINC-N013\Freq\RB3LYP\6-31++G(d,p)\C22H12N4S4\SHUO\29-Dec-2013\0\\
 #N Geom=AllCheck Guess=TCheck SCRF=Check Test GenChk RB3LYP/6-31++G(d,
 p) Freq\\Geom opt of No.42 candidate from the CEPDB database with SMIL
 E code of C1ccc2c1csc2-c1cnc(-c2ncc(s2)-c2scc3ccCc23)c2nsnc12, HPC, 20
 131227, Shuo Dai, Gaussian09\\0,1\C,-1.391414387,1.5777774361,0.157405
 4721\C,-2.0235197526,0.2974535545,0.6706423538\C,-1.1683920963,-0.7486
 691456,0.6038028473\C,0.1065674482,-0.2969596542,0.04549919\C,-0.00503
 82697,1.1083261443,-0.2139197904\C,1.145488043,1.6595344373,-0.6959322

 Normal termination of Gaussian 09 at Sun Dec 29 12:45:09 2013.
