 Gaussian 09, Revision C.01,
 Gaussian 09:  EM64L-G09RevC.01 23-Sep-2011

 --------------------------------------------
 #B3LYP/6-31++G(d,p) opt scf=direct freq test
 --------------------------------------------

 Geom opt of No.34 candidate from the CEPDB database with SMILE code of
  c1cc2c(sc(-c3nccc4nsnc34)c2s1)-c1ncc(s1)-c1ccccc1, HPC, 20131227, Shu
 o Dai, Gaussian09
 ----------------------------------------------------------------------
 Charge =  0 Multiplicity = 1

 SCF Done:  E(RB3LYP) =  -2579.90379599     A.U. after   25 cycles
 SCF Done:  E(RB3LYP) =  -2579.93067728     A.U. after   15 cycles
 SCF Done:  E(RB3LYP) =  -2579.93584998     A.U. after   15 cycles
 SCF Done:  E(RB3LYP) =  -2579.93657923     A.U. after   14 cycles
 SCF Done:  E(RB3LYP) =  -2579.93717934     A.U. after   17 cycles
 SCF Done:  E(RB3LYP) =  -2579.93749515     A.U. after   15 cycles
 SCF Done:  E(RB3LYP) =  -2579.93775272     A.U. after   15 cycles
 SCF Done:  E(RB3LYP) =  -2579.93782099     A.U. after   13 cycles
 SCF Done:  E(RB3LYP) =  -2579.93783842     A.U. after   13 cycles
 SCF Done:  E(RB3LYP) =  -2579.93784234     A.U. after   11 cycles
 SCF Done:  E(RB3LYP) =  -2579.93784290     A.U. after   12 cycles
 SCF Done:  E(RB3LYP) =  -2579.93784357     A.U. after   11 cycles
 SCF Done:  E(RB3LYP) =  -2579.93784366     A.U. after   11 cycles
 SCF Done:  E(RB3LYP) =  -2579.93784371     A.U. after   12 cycles
 SCF Done:  E(RB3LYP) =  -2579.93784373     A.U. after   11 cycles
 Optimization completed.
    -- Stationary point found.

 1\1\GINC-N027\FOpt\RB3LYP\6-31++G(d,p)\C20H10N4S4\SHUO\29-Dec-2013\0\\
 #B3LYP/6-31++G(d,p) opt scf=direct freq test\\Geom opt of No.34 candid
 ate from the CEPDB database with SMILE code of c1cc2c(sc(-c3nccc4nsnc3
 4)c2s1)-c1ncc(s1)-c1ccccc1, HPC, 20131227, Shuo Dai, Gaussian09\\0,1\C
 ,2.219461285,0.4977495208,-0.3329462662\C,1.1339711894,1.3138345656,-0
 .2480903775\C,-0.0895166712,0.5610873718,-0.1230645318\C,-1.4513742265
 ,0.8541943578,-0.0045610725\S,-2.4057396678,-0.6061370576,0.1106203063
 \C,-0.988874094,-1.6338759347,-0.000180105\C,-1.00623964,-3.0787239228

 Normal termination of Gaussian 09 at Sun Dec 29 04:48:03 2013.

 ----------------------------------------------------------------------
 #N Geom=AllCheck Guess=TCheck SCRF=Check Test GenChk RB3LYP/6-31++G(d,
 p) Freq
 ----------------------------------------------------------------------

 Geom opt of No.34 candidate from the CEPDB database with SMILE code of
  c1cc2c(sc(-c3nccc4nsnc34)c2s1)-c1ncc(s1)-c1ccccc1, HPC, 20131227, Shu
 o Dai, Gaussian09
 ----------------------------------------------------------------------
 Charge =  0 Multiplicity = 1

                         Standard orientation:
 ---------------------------------------------------------------------
 Center     Atomic      Atomic             Coordinates (Angstroms)
 Number     Number       Type             X           Y           Z
 ---------------------------------------------------------------------
      1          6           0       -0.398890    3.934638   -0.109076
      2          6           0        0.531582    2.942082   -0.085835
      3          6           0       -0.082140    1.637779   -0.049488
      4          6           0        0.358896    0.311538   -0.015107
      5         16           0       -0.987744   -0.803014    0.016243
      6          6           0       -2.165022    0.496631   -0.014934
      7          6           0       -3.599251    0.318866   -0.006878
      8          7           0       -4.337664    1.424312   -0.033734
      9          6           0       -5.699442    1.351238   -0.028551
     10          6           0       -6.436015    0.189426    0.003274
     11          6           0       -5.699668   -1.024627    0.032970
     12          7           0       -6.182723   -2.275022    0.066654
     13         16           0       -4.878963   -3.278511    0.089597
     14          7           0       -3.666131   -2.167295    0.057820
     15          6           0       -4.253805   -0.969636    0.028165
     16          6           0       -1.508320    1.721019   -0.048226
     17         16           0       -2.069493    3.373556   -0.089628
     18          6           0        1.692900   -0.231326   -0.002152
     19          7           0        1.948393   -1.522886    0.033295
     20          6           0        3.286752   -1.771372    0.042566
     21          6           0        4.130347   -0.679650    0.013369
     22         16           0        3.148425    0.769065   -0.032323
     23          6           0        5.596132   -0.650158    0.016717
     24          6           0        6.326418   -1.733665   -0.510932
     25          6           0        7.720187   -1.729548   -0.492893
     26          6           0        8.417524   -0.639404    0.036807
     27          6           0        7.705259    0.446898    0.552200
     28          6           0        6.310726    0.441355    0.546178
     29          1           0       -0.206885    4.999962   -0.138204
     30          1           0        1.597476    3.129777   -0.095777
     31          1           0       -6.202922    2.314071   -0.052287
     32          1           0       -7.519431    0.191619    0.005823
     33          1           0        3.627138   -2.798653    0.097668
     34          1           0        5.798042   -2.571154   -0.955319
     35          1           0        8.263039   -2.574513   -0.906459
     36          1           0        9.503284   -0.635219    0.043784
     37          1           0        8.235531    1.298531    0.968275
     38          1           0        5.770990    1.281803    0.972979
 ---------------------------------------------------------------------

 SCF Done:  E(RB3LYP) =  -2579.93784373     A.U. after    2 cycles

 The electronic state is 1-A.
 Alpha  occ. eigenvalues --  -88.99273 -88.93306 -88.93219 -88.92274 -14.39398
 Alpha  occ. eigenvalues --  -14.38722 -14.35377 -14.35272 -10.27752 -10.27007
 Alpha  occ. eigenvalues --  -10.26288 -10.26239 -10.25138 -10.24472 -10.24460
 Alpha  occ. eigenvalues --  -10.24362 -10.24012 -10.23502 -10.23433 -10.22893
 Alpha  occ. eigenvalues --  -10.22491 -10.21657 -10.21429 -10.21144 -10.21141
 Alpha  occ. eigenvalues --  -10.21025 -10.21008 -10.20898  -8.04589  -7.99251
 Alpha  occ. eigenvalues --   -7.98910  -7.98043  -6.01146  -6.00563  -6.00341
 Alpha  occ. eigenvalues --   -5.95660  -5.95368  -5.95315  -5.94965  -5.94956
 Alpha  occ. eigenvalues --   -5.94610  -5.94504  -5.94128  -5.93697  -1.03820
 Alpha  occ. eigenvalues --   -0.98148  -0.96378  -0.91936  -0.90992  -0.87892
 Alpha  occ. eigenvalues --   -0.85687  -0.82320  -0.81757  -0.80983  -0.78177
 Alpha  occ. eigenvalues --   -0.76512  -0.76243  -0.74762  -0.73386  -0.71256
 Alpha  occ. eigenvalues --   -0.68023  -0.64816  -0.64245  -0.63711  -0.62309
 Alpha  occ. eigenvalues --   -0.60681  -0.59121  -0.58237  -0.55387  -0.54827
 Alpha  occ. eigenvalues --   -0.53691  -0.52615  -0.51759  -0.50033  -0.48546
 Alpha  occ. eigenvalues --   -0.47895  -0.47287  -0.47031  -0.46629  -0.45037
 Alpha  occ. eigenvalues --   -0.44383  -0.44219  -0.43765  -0.43516  -0.42771
 Alpha  occ. eigenvalues --   -0.42117  -0.40740  -0.40036  -0.39853  -0.39743
 Alpha  occ. eigenvalues --   -0.38823  -0.38017  -0.37093  -0.36349  -0.35850
 Alpha  occ. eigenvalues --   -0.35566  -0.35334  -0.34532  -0.34134  -0.31837
 Alpha  occ. eigenvalues --   -0.31690  -0.30258  -0.29611  -0.29014  -0.28159
 Alpha  occ. eigenvalues --   -0.27991  -0.27079  -0.26417  -0.25133  -0.24663
 Alpha  occ. eigenvalues --   -0.20315
 Alpha virt. eigenvalues --   -0.11796  -0.08237  -0.04462  -0.02944  -0.02629
 Alpha virt. eigenvalues --   -0.01741  -0.01481  -0.01314  -0.00483  -0.00350
 Alpha virt. eigenvalues --   -0.00098   0.00368   0.00448   0.00811   0.01096

 Mulliken atomic charges:
              1
     1  C   -0.108513
     2  C   -0.583981
     3  C    0.119759
     4  C   -0.667070
     5  S    0.337502
     6  C   -0.073552
     7  C   -0.062102
     8  N   -0.116265
     9  C    0.293758
    10  C   -0.534757
    11  C    0.203413
    12  N   -0.410199
    13  S    0.873398
    14  N   -0.452922
    15  C    0.175036
    16  C    0.047264
    17  S    0.103827
    18  C   -0.222490
    19  N   -0.046503
    20  C    0.130682
    21  C   -0.135552
    22  S    0.041473
    23  C    0.922397
    24  C   -0.572200
    25  C    0.078081
    26  C   -0.312785
    27  C    0.035655
    28  C   -0.414323
    29  H    0.213266
    30  H    0.068294
    31  H    0.159197
    32  H    0.169128
    33  H    0.171236
    34  H    0.095567
    35  H    0.131254
    36  H    0.107897
    37  H    0.131450
    38  H    0.103679
 Sum of Mulliken atomic charges =  -0.00000

 Dipole moment (field-independent basis, Debye):
    X=              2.5960    Y=              1.1810    Z=             -0.0305  Tot=              2.8522
 Quadrupole moment (field-independent basis, Debye-Ang):
   XX=           -160.5187   YY=           -175.1965   ZZ=           -193.8587
   XY=             -2.9680   XZ=              0.1151   YZ=              2.8540

  Exact polarizability: 810.937   1.723 394.215  -0.418   7.160 166.978
 Approx polarizability:1217.166  -6.644 771.266  -0.183  15.651 281.522

                     1                      2                      3
                     A                      A                      A
 Frequencies --    17.8254                28.0075                35.8162
 Red. masses --     6.4529                 5.5778                 8.3042
 Frc consts  --     0.0012                 0.0026                 0.0063
 IR Inten    --     0.2799                 0.0062                 0.1833

                     4                      5                      6
                     A                      A                      A
 Frequencies --    36.4100                54.0830                58.7419
 Red. masses --     7.2283                 6.7610                 9.5818
 Frc consts  --     0.0056                 0.0117                 0.0195
 IR Inten    --     0.3081                 0.1044                 0.1500

                     7                      8                      9
                     A                      A                      A
 Frequencies --    75.0496               100.3597               131.0575
 Red. masses --     9.0133                 7.4613                 6.9075
 Frc consts  --     0.0299                 0.0443                 0.0699
 IR Inten    --     0.2264                 0.2996                 0.0450

                    10                     11                     12
                     A                      A                      A
 Frequencies --   147.0319               164.7051               177.4999
 Red. masses --     8.7061                 9.5575                11.3828
 Frc consts  --     0.1109                 0.1528                 0.2113
 IR Inten    --     0.0367                 0.0357                 0.7393

                    13                     14                     15
                     A                      A                      A
 Frequencies --   179.7500               204.8127               215.4779
 Red. masses --     7.3609                 9.4508                 7.7653
 Frc consts  --     0.1401                 0.2336                 0.2124
 IR Inten    --     0.1986                 0.1695                 3.4167

                    16                     17                     18
                     A                      A                      A
 Frequencies --   265.8594               277.3679               297.7998
 Red. masses --     6.2624                 8.3764                 7.4319
 Frc consts  --     0.2608                 0.3797                 0.3883
 IR Inten    --     1.1973                 3.4698                 5.5493

                    19                     20                     21
                     A                      A                      A
 Frequencies --   324.2729               365.4067               382.1939
 Red. masses --     7.6325                 8.3241                10.8161
 Frc consts  --     0.4729                 0.6549                 0.9309
 IR Inten    --     1.5600                 2.6671                 1.0730

                    22                     23                     24
                     A                      A                      A
 Frequencies --   400.5843               412.7646               418.9678
 Red. masses --     8.1223                 2.9368                 9.0728
 Frc consts  --     0.7679                 0.2948                 0.9383
 IR Inten    --     8.8647                 0.0827                 0.6326

                    25                     26                     27
                     A                      A                      A
 Frequencies --   455.3395               471.7925               486.3483
 Red. masses --     9.1220                 5.9220                 5.6877
 Frc consts  --     1.1143                 0.7766                 0.7927
 IR Inten    --     5.7309                 1.7878                 5.6723

                    28                     29                     30
                     A                      A                      A
 Frequencies --   497.0334               507.2260               532.5197
 Red. masses --     9.3899                 4.4442                13.2128
 Frc consts  --     1.3667                 0.6737                 2.2076
 IR Inten    --     1.3445                 7.8048                12.5206

                    31                     32                     33
                     A                      A                      A
 Frequencies --   541.7770               565.5513               582.3669
 Red. masses --     6.8278                 5.3394                 4.0591
 Frc consts  --     1.1808                 1.0062                 0.8111
 IR Inten    --     1.4545                12.0707                 1.3627

                    34                     35                     36
                     A                      A                      A
 Frequencies --   589.2244               612.5469               630.4019
 Red. masses --    10.5484                 9.3502                 6.6167
 Frc consts  --     2.1577                 2.0670                 1.5493
 IR Inten    --     1.6634                18.2064                 0.8331

                    37                     38                     39
                     A                      A                      A
 Frequencies --   634.3800               635.7803               663.4136
 Red. masses --     7.8632                 8.3234                 4.7979
 Frc consts  --     1.8644                 1.9823                 1.2441
 IR Inten    --     5.2538                 4.9783                 0.1320

                    40                     41                     42
                     A                      A                      A
 Frequencies --   678.8486               696.4811               703.9571
 Red. masses --     2.7321                 6.2416                 1.9676
 Frc consts  --     0.7418                 1.7839                 0.5745
 IR Inten    --    21.4785                 1.6253                33.2478

                    43                     44                     45
                     A                      A                      A
 Frequencies --   717.4756               740.4058               751.8874
 Red. masses --     9.8960                 8.7326                 2.1099
 Frc consts  --     3.0014                 2.8206                 0.7028
 IR Inten    --     4.7217                17.9581                33.1322

                    46                     47                     48
                     A                      A                      A
 Frequencies --   755.9547               773.3091               786.7280
 Red. masses --     7.0947                 1.8585                 6.5590
 Frc consts  --     2.3888                 0.6548                 2.3919
 IR Inten    --    25.3851                43.0684                 0.4795

                    49                     50                     51
                     A                      A                      A
 Frequencies --   821.2724               821.5492               826.8634
 Red. masses --     1.4719                11.4840                11.1960
 Frc consts  --     0.5849                 4.5668                 4.5100
 IR Inten    --    31.0191                80.1845                19.9839

                    52                     53                     54
                     A                      A                      A
 Frequencies --   841.4779               849.8291               852.4700
 Red. masses --     6.0948                 9.8470                 1.2626
 Frc consts  --     2.5427                 4.1900                 0.5406
 IR Inten    --    16.6899                 9.4215                 0.5753

                    55                     56                     57
                     A                      A                      A
 Frequencies --   880.0392               896.4286               899.1670
 Red. masses --     1.4017                10.1783                 1.2912
 Frc consts  --     0.6396                 4.8190                 0.6151
 IR Inten    --    10.6663                15.8484                 0.0368

                    58                     59                     60
                     A                      A                      A
 Frequencies --   905.9401               927.2028               945.1983
 Red. masses --    10.5169                 1.4281                 8.4229
 Frc consts  --     5.0855                 0.7234                 4.4336
 IR Inten    --    36.1816                 1.1184                28.7176

                    61                     62                     63
                     A                      A                      A
 Frequencies --   980.0299               982.5259               983.1787
 Red. masses --     7.1301                 1.3843                 1.3534
 Frc consts  --     4.0348                 0.7874                 0.7708
 IR Inten    --     0.4561                 0.2192                 0.3509

                    64                     65                     66
                     A                      A                      A
 Frequencies --  1001.8986              1011.5868              1053.4493
 Red. masses --     1.2812                 5.9874                 3.2917
 Frc consts  --     0.7577                 3.6099                 2.1523
 IR Inten    --     0.0665                 0.1125                45.0022

                    67                     68                     69
                     A                      A                      A
 Frequencies --  1055.9365              1085.6002              1107.4021
 Red. masses --     2.2575                 2.3077                 1.6194
 Frc consts  --     1.4831                 1.6024                 1.1701
 IR Inten    --     0.7469                31.3048                 6.2519

                    70                     71                     72
                     A                      A                      A
 Frequencies --  1124.7008              1149.2223              1185.6393
 Red. masses --     1.2349                 2.7907                 1.1336
 Frc consts  --     0.9204                 2.1716                 0.9389
 IR Inten    --    43.9287                 5.9577                 0.6316

                    73                     74                     75
                     A                      A                      A
 Frequencies --  1190.9095              1210.9419              1246.2657
 Red. masses --     2.1717                 1.1497                 3.9555
 Frc consts  --     1.8147                 0.9933                 3.6197
 IR Inten    --    20.7110                 0.4599                51.2326

                    76                     77                     78
                     A                      A                      A
 Frequencies --  1269.3122              1279.2148              1319.8018
 Red. masses --     3.0478                 3.0609                 2.8334
 Frc consts  --     2.8932                 2.9511                 2.9079
 IR Inten    --    12.3265                29.8620                 0.0111

                    79                     80                     81
                     A                      A                      A
 Frequencies --  1324.1537              1335.1522              1349.1898
 Red. masses --     3.7049                 2.4549                 3.1556
 Frc consts  --     3.8274                 2.5784                 3.3843
 IR Inten    --    43.5018                70.7645                 1.0516

                    82                     83                     84
                     A                      A                      A
 Frequencies --  1354.9140              1363.6279              1367.6597
 Red. masses --     3.1836                 1.7892                 6.9456
 Frc consts  --     3.4434                 1.9602                 7.6545
 IR Inten    --     1.7359                 0.9362                92.0839

                    85                     86                     87
                     A                      A                      A
 Frequencies --  1394.7929              1438.9588              1453.0312
 Red. masses --    10.1475                 3.5312                 6.9158
 Frc consts  --    11.6314                 4.3080                 8.6029
 IR Inten    --    22.8894                 4.3428                28.3674

                    88                     89                     90
                     A                      A                      A
 Frequencies --  1480.0939              1490.1676              1500.1715
 Red. masses --     2.4547                 7.6628                 6.3356
 Frc consts  --     3.1683                10.0255                 8.4008
 IR Inten    --    32.7016               437.0606               336.9382

                    91                     92                     93
                     A                      A                      A
 Frequencies --  1519.6095              1537.8418              1546.4972
 Red. masses --     3.1453                 4.6300                 4.5855
 Frc consts  --     4.2794                 6.4513                 6.4616
 IR Inten    --    16.1794                 2.8349               102.6072

                    94                     95                     96
                     A                      A                      A
 Frequencies --  1558.4067              1577.2322              1608.0105
 Red. masses --     5.2091                 8.5586                 7.4475
 Frc consts  --     7.4538                12.5442                11.3460
 IR Inten    --    27.3656               100.8877                42.7983

                    97                     98                     99
                     A                      A                      A
 Frequencies --  1620.0791              1647.4919              3181.1594
 Red. masses --     5.3191                 5.4962                 1.0854
 Frc consts  --     8.2254                 8.7893                 6.4717
 IR Inten    --     2.2396                20.2896                 9.0315

                   100                    101                    102
                     A                      A                      A
 Frequencies --  3186.8393              3186.9833              3196.2855
 Red. masses --     1.0898                 1.0878                 1.0916
 Frc consts  --     6.5212                 6.5094                 6.5703
 IR Inten    --    39.9224                 1.0798                12.5702

                   103                    104                    105
                     A                      A                      A
 Frequencies --  3203.4456              3210.9563              3229.8908
 Red. masses --     1.0941                 1.0981                 1.0928
 Frc consts  --     6.6154                 6.6708                 6.7167
 IR Inten    --    20.5121                22.2942                21.3441

                   106                    107                    108
                     A                      A                      A
 Frequencies --  3232.5824              3234.3984              3253.1357
 Red. masses --     1.0947                 1.0873                 1.1006
 Frc consts  --     6.7398                 6.7019                 6.8623
 IR Inten    --     3.7831                 0.7377                 2.1005

 - Thermochemistry -
 -------------------
 Temperature   298.150 Kelvin.  Pressure   1.00000 Atm.
 Atom     1 has atomic number  6 and mass  12.00000

 Molecular mass:   433.97883 amu.
 Principal axes and moments of inertia in atomic units:
                           1         2         3
     Eigenvalues --  5602.43213********************
           X            0.99998  -0.00658   0.00015
           Y            0.00658   0.99997   0.00379
           Z           -0.00018  -0.00379   0.99999
 This molecule is an asymmetric top.
 Rotational symmetry number  1.
 Warning -- assumption of classical behavior for rotation
           may cause significant error
 Rotational temperatures (Kelvin)      0.01546     0.00288     0.00243
 Rotational constants (GHZ):           0.32214     0.05995     0.05072
 Zero-point vibrational energy     670329.9 (Joules/Mol)
                                  160.21269 (Kcal/Mol)
 Warning -- explicit consideration of  35 degrees of freedom as
           vibrations may cause significant error
 Vibrational temperatures:     25.65    40.30    51.53    52.39    77.81
          (Kelvin)             84.52   107.98   144.40   188.56   211.55
                              236.97   255.38   258.62   294.68   310.02
                              382.51   399.07   428.47   466.56   525.74
                              549.89   576.35   593.88   602.80   655.13
                              678.80   699.75   715.12   729.78   766.18
                              779.50   813.70   837.90   847.76   881.32
                              907.01   912.73   914.74   954.50   976.71
                             1002.08  1012.84  1032.29  1065.28  1081.80
                             1087.65  1112.62  1131.92  1181.63  1182.02
                             1189.67  1210.70  1222.71  1226.51  1266.18
                             1289.76  1293.70  1303.44  1334.04  1359.93
                             1410.04  1413.63  1414.57  1441.51  1455.45
                             1515.68  1519.26  1561.93  1593.30  1618.19
                             1653.47  1705.87  1713.45  1742.27  1793.10
                             1826.25  1840.50  1898.90  1905.16  1920.98
                             1941.18  1949.42  1961.95  1967.75  2006.79
                             2070.34  2090.59  2129.52  2144.02  2158.41
                             2186.38  2212.61  2225.06  2242.20  2269.28
                             2313.57  2330.93  2370.37  4576.97  4585.15
                             4585.35  4598.74  4609.04  4619.84  4647.09
                             4650.96  4653.57  4680.53

 Zero-point correction=                           0.255315 (Hartree/Particle)
 Thermal correction to Energy=                    0.277342
 Thermal correction to Enthalpy=                  0.278287
 Thermal correction to Gibbs Free Energy=         0.200828
 Sum of electronic and zero-point Energies=          -2579.682529
 Sum of electronic and thermal Energies=             -2579.660501
 Sum of electronic and thermal Enthalpies=           -2579.659557
 Sum of electronic and thermal Free Energies=        -2579.737016

                     E (Thermal)             CV                S
                      KCal/Mol        Cal/Mol-Kelvin    Cal/Mol-Kelvin
 Total                  174.035             85.841            163.025
 Electronic               0.000              0.000              0.000
 Translational            0.889              2.981             44.093
 Rotational               0.889              2.981             37.038
 Vibrational            172.258             79.879             81.894
 Vibration     1          0.593              1.986              6.863
 Vibration     2          0.593              1.984              5.966
 Vibration     3          0.594              1.982              5.478
 Vibration     4          0.594              1.982              5.445
 Vibration     5          0.596              1.976              4.662
 Vibration     6          0.596              1.974              4.499
 Vibration     7          0.599              1.966              4.016
 Vibration     8          0.604              1.949              3.447
 Vibration     9          0.612              1.922              2.930
 Vibration    10          0.617              1.906              2.710
 Vibration    11          0.623              1.886              2.495
 Vibration    12          0.628              1.870              2.355
 Vibration    13          0.629              1.867              2.331
 Vibration    14          0.640              1.833              2.089
 Vibration    15          0.645              1.817              1.997
 Vibration    16          0.672              1.736              1.623
 Vibration    17          0.678              1.715              1.550
 Vibration    18          0.691              1.678              1.429
 Vibration    19          0.709              1.627              1.288
 Vibration    20          0.739              1.543              1.099
 Vibration    21          0.752              1.508              1.030
 Vibration    22          0.766              1.469              0.961
 Vibration    23          0.777              1.443              0.917
 Vibration    24          0.782              1.429              0.895
 Vibration    25          0.814              1.349              0.780
 Vibration    26          0.829              1.313              0.733
 Vibration    27          0.842              1.280              0.693
 Vibration    28          0.853              1.257              0.666
 Vibration    29          0.862              1.234              0.640
 Vibration    30          0.887              1.178              0.582
 Vibration    31          0.897              1.158              0.561
 Vibration    32          0.921              1.106              0.513
 Vibration    33          0.939              1.069              0.481
 Vibration    34          0.946              1.055              0.469
 Vibration    35          0.972              1.005              0.429

 Optimization completed.
    -- Stationary point found.

 1\1\GINC-N027\Freq\RB3LYP\6-31++G(d,p)\C20H10N4S4\SHUO\29-Dec-2013\0\\
 #N Geom=AllCheck Guess=TCheck SCRF=Check Test GenChk RB3LYP/6-31++G(d,
 p) Freq\\Geom opt of No.34 candidate from the CEPDB database with SMIL
 E code of c1cc2c(sc(-c3nccc4nsnc34)c2s1)-c1ncc(s1)-c1ccccc1, HPC, 2013
 1227, Shuo Dai, Gaussian09\\0,1\C,2.219461285,0.4977495208,-0.33294626
 62\C,1.1339711894,1.3138345656,-0.2480903775\C,-0.0895166712,0.5610873
 718,-0.1230645318\C,-1.4513742265,0.8541943578,-0.0045610725\S,-2.4057
 396678,-0.6061370576,0.1106203063\C,-0.988874094,-1.6338759347,-0.0001

 Normal termination of Gaussian 09 at Sun Dec 29 06:06:44 2013.
