 Gaussian 09, Revision C.01,
 Gaussian 09:  EM64L-G09RevC.01 23-Sep-2011

 --------------------------------------------
 #B3LYP/6-31++G(d,p) opt scf=direct freq test
 --------------------------------------------

 Geom opt of No.61 candidate from the CEPDB database with SMILE code of
  [SiH2]1C=Cc2c1c1oc3cc(sc3c1c1ccccc21)-c1cncc2nsnc12, HPC, 20131227, S
 huo Dai, Gaussian09
 ----------------------------------------------------------------------
 Charge =  0 Multiplicity = 1

 SCF Done:  E(RB3LYP) =  -2131.56483687     A.U. after   30 cycles
 SCF Done:  E(RB3LYP) =  -2131.65117955     A.U. after   25 cycles
 SCF Done:  E(RB3LYP) =  -2131.72481922     A.U. after   26 cycles
 SCF Done:  E(RB3LYP) =  -2131.83697766     A.U. after   23 cycles
 SCF Done:  E(RB3LYP) =  -2131.88943646     A.U. after   25 cycles
 SCF Done:  E(RB3LYP) =  -2131.96055993     A.U. after   19 cycles
 SCF Done:  E(RB3LYP) =  -2132.02349997     A.U. after   18 cycles
 SCF Done:  E(RB3LYP) =  -2132.06136606     A.U. after   18 cycles
 SCF Done:  E(RB3LYP) =  -2132.07296450     A.U. after   17 cycles
 SCF Done:  E(RB3LYP) =  -2132.09071420     A.U. after   18 cycles
 SCF Done:  E(RB3LYP) =  -2132.11712411     A.U. after   15 cycles
 SCF Done:  E(RB3LYP) =  -2132.11722212     A.U. after   14 cycles
 SCF Done:  E(RB3LYP) =  -2132.11725725     A.U. after   14 cycles
 SCF Done:  E(RB3LYP) =  -2132.11727373     A.U. after   13 cycles
 SCF Done:  E(RB3LYP) =  -2132.11727559     A.U. after   12 cycles
 SCF Done:  E(RB3LYP) =  -2132.11727672     A.U. after   12 cycles
 SCF Done:  E(RB3LYP) =  -2132.11727709     A.U. after   12 cycles
 SCF Done:  E(RB3LYP) =  -2132.11727716     A.U. after   10 cycles
 SCF Done:  E(RB3LYP) =  -2132.11727715     A.U. after   10 cycles
 Optimization completed.
    -- Stationary point found.
 Normal termination of Gaussian 09 at Sun Dec 29 17:20:18 2013.

 ----------------------------------------------------------------------
 #N Geom=AllCheck Guess=TCheck SCRF=Check Test GenChk RB3LYP/6-31++G(d,
 p) Freq
 ----------------------------------------------------------------------

 Geom opt of No.61 candidate from the CEPDB database with SMILE code of
  [SiH2]1C=Cc2c1c1oc3cc(sc3c1c1ccccc21)-c1cncc2nsnc12, HPC, 20131227, S
 huo Dai, Gaussian09
 ----------------------------------------------------------------------
 Charge =  0 Multiplicity = 1

                         Standard orientation:
 ---------------------------------------------------------------------
 Center     Atomic      Atomic             Coordinates (Angstroms)
 Number     Number       Type             X           Y           Z
 ---------------------------------------------------------------------
      1         14           0       -5.039111   -2.664654   -0.113644
      2          1           0       -5.302133   -3.096565    1.279405
      3          1           0       -4.652846   -3.811144   -0.970658
      4          6           0       -6.309221   -1.502114   -0.864043
      5          6           0       -5.959242   -0.471858    0.008066
      6          6           0       -4.554531   -0.028880   -0.057713
      7          6           0       -3.767454   -1.208201   -0.115176
      8          6           0       -2.381572   -1.019221   -0.071799
      9          8           0       -1.455498   -2.043865   -0.102600
     10          6           0       -0.239239   -1.428530   -0.010959
     11          6           0        1.073948   -1.927675   -0.023468
     12          6           0        1.991870   -0.890554    0.079454
     13         16           0        1.196306    0.698557    0.160597
     14          6           0       -0.364426   -0.051180    0.089296
     15          6           0       -1.764036    0.239347    0.047910
     16          6           0       -2.561076    1.425849    0.135803
     17          6           0       -2.005636    2.720426    0.270056
     18          6           0       -2.822705    3.832612    0.359748
     19          6           0       -4.227280    3.693183    0.311156
     20          6           0       -4.795968    2.441617    0.169465
     21          6           0       -3.988142    1.279538    0.091660
     22          6           0        3.441351   -1.028751    0.164120
     23          6           0        4.041175   -2.238159    0.500712
     24          7           0        5.382799   -2.486219    0.565223
     25          6           0        6.239084   -1.520438    0.323705
     26          6           0        5.783395   -0.209363   -0.002718
     27          7           0        6.543253    0.865469   -0.254968
     28         16           0        5.506094    2.095247   -0.571056
     29          7           0        4.070089    1.311871   -0.403442
     30          6           0        4.363156    0.044398   -0.087419
     31          1           0       -5.753306   -1.333282   -1.805197
     32          1           0       -6.490610   -0.318379    0.953325
     33          1           0        1.340501   -2.971602   -0.119987
     34          1           0       -0.926582    2.838286    0.303281
     35          1           0       -2.381937    4.819577    0.463432
     36          1           0       -4.859797    4.573231    0.377200
     37          1           0       -5.875347    2.333904    0.107662
     38          1           0        3.419237   -3.090603    0.754022
     39          1           0        7.302266   -1.738333    0.381842
 ---------------------------------------------------------------------

 SCF Done:  E(RB3LYP) =  -2132.11727715     A.U. after    2 cycles

 The electronic state is 1-A.
 Alpha  occ. eigenvalues --  -89.00584 -88.93990 -66.16332 -19.24150 -14.40432
 Alpha  occ. eigenvalues --  -14.40094 -14.36794 -10.27622 -10.27309 -10.27242
 Alpha  occ. eigenvalues --  -10.27014 -10.26051 -10.25933 -10.25275 -10.25131
 Alpha  occ. eigenvalues --  -10.24084 -10.23798 -10.23396 -10.23257 -10.23062
 Alpha  occ. eigenvalues --  -10.22868 -10.22605 -10.21561 -10.21515 -10.21496
 Alpha  occ. eigenvalues --  -10.21395 -10.21330 -10.17470  -8.05890  -7.99701
 Alpha  occ. eigenvalues --   -6.02441  -6.01857  -6.01657  -5.96169  -5.95795
 Alpha  occ. eigenvalues --   -5.95356  -5.30667  -3.66637  -3.66528  -3.66462
 Alpha  occ. eigenvalues --   -1.13512  -1.05062  -0.97001  -0.92534  -0.90954
 Alpha  occ. eigenvalues --   -0.90231  -0.85845  -0.84430  -0.82989  -0.80310
 Alpha  occ. eigenvalues --   -0.78094  -0.77276  -0.76577  -0.75434  -0.71696
 Alpha  occ. eigenvalues --   -0.69322  -0.66471  -0.65641  -0.64907  -0.63441
 Alpha  occ. eigenvalues --   -0.62163  -0.59079  -0.58589  -0.57975  -0.54955
 Alpha  occ. eigenvalues --   -0.54451  -0.54120  -0.53161  -0.51700  -0.50798
 Alpha  occ. eigenvalues --   -0.49474  -0.48791  -0.48480  -0.48189  -0.47886
 Alpha  occ. eigenvalues --   -0.46514  -0.45370  -0.44271  -0.43430  -0.43089
 Alpha  occ. eigenvalues --   -0.42198  -0.41440  -0.41108  -0.41041  -0.40078
 Alpha  occ. eigenvalues --   -0.39774  -0.39371  -0.38720  -0.37656  -0.36691
 Alpha  occ. eigenvalues --   -0.36211  -0.35718  -0.35381  -0.34359  -0.33938
 Alpha  occ. eigenvalues --   -0.33178  -0.32776  -0.31793  -0.30647  -0.29101
 Alpha  occ. eigenvalues --   -0.28668  -0.27718  -0.25982  -0.25113  -0.21902
 Alpha  occ. eigenvalues --   -0.21532
 Alpha virt. eigenvalues --   -0.12430  -0.09588  -0.07185  -0.05052  -0.03444
 Alpha virt. eigenvalues --   -0.03173  -0.02482  -0.01573  -0.00733  -0.00510
 Alpha virt. eigenvalues --   -0.00472   0.00119   0.00782   0.00996   0.01197

 Mulliken atomic charges:
              1
     1  Si   0.820598
     2  H   -0.104506
     3  H   -0.084931
     4  C   -0.904365
     5  C    0.124369
     6  C    0.637603
     7  C   -0.983607
     8  C   -0.051722
     9  O   -0.351381
    10  C   -0.038993
    11  C   -0.145701
    12  C   -0.478989
    13  S    0.180052
    14  C    0.124075
    15  C    0.799437
    16  C    0.624468
    17  C   -0.298426
    18  C   -0.410694
    19  C   -0.238542
    20  C   -0.362753
    21  C    0.300086
    22  C    0.123453
    23  C   -0.397050
    24  N   -0.115733
    25  C   -0.328185
    26  C    0.357017
    27  N   -0.419935
    28  S    0.885740
    29  N   -0.395685
    30  C   -0.110561
    31  H    0.171770
    32  H    0.204530
    33  H    0.156295
    34  H    0.006127
    35  H    0.137008
    36  H    0.110969
    37  H    0.104218
    38  H    0.169453
    39  H    0.184492
 Sum of Mulliken atomic charges =  -0.00000

 Dipole moment (field-independent basis, Debye):
    X=              1.6761    Y=              2.9072    Z=              0.6978  Tot=              3.4276
 Quadrupole moment (field-independent basis, Debye-Ang):
   XX=           -202.6527   YY=           -174.0053   ZZ=           -185.7816
   XY=             -6.5004   XZ=             -9.3603   YZ=              0.2655

  Exact polarizability: 676.510  -3.111 396.608  12.841  -0.607 173.749
 Approx polarizability:1012.264 -21.571 743.409  33.040  -4.535 300.001

                     1                      2                      3
                     A                      A                      A
 Frequencies --    14.0597                29.5123                50.7073
 Red. masses --     9.8867                 8.1940                 9.1361
 Frc consts  --     0.0012                 0.0042                 0.0138
 IR Inten    --     0.0320                 0.1285                 0.0468

                     4                      5                      6
                     A                      A                      A
 Frequencies --    76.8247                87.3085                92.0482
 Red. masses --     8.9218                 4.2336                 6.0326
 Frc consts  --     0.0310                 0.0190                 0.0301
 IR Inten    --     0.6963                 0.2801                 0.5149

                     7                      8                      9
                     A                      A                      A
 Frequencies --   116.8097               138.8712               147.0548
 Red. masses --     8.9849                 3.9357                 6.4624
 Frc consts  --     0.0722                 0.0447                 0.0823
 IR Inten    --     0.0065                 0.3537                 0.2000

                    10                     11                     12
                     A                      A                      A
 Frequencies --   159.4793               190.8346               216.7188
 Red. masses --     6.7264                 7.0825                 8.4050
 Frc consts  --     0.1008                 0.1520                 0.2326
 IR Inten    --     1.2136                 0.9100                 0.8954

                    13                     14                     15
                     A                      A                      A
 Frequencies --   228.6683               248.3965               251.6237
 Red. masses --     6.6897                 6.3236                 6.6429
 Frc consts  --     0.2061                 0.2299                 0.2478
 IR Inten    --     1.0916                 3.0514                 3.4993

                    16                     17                     18
                     A                      A                      A
 Frequencies --   273.3807               297.2283               318.5049
 Red. masses --     4.5030                 2.5250                 6.7117
 Frc consts  --     0.1983                 0.1314                 0.4012
 IR Inten    --     4.1926                18.1695                 1.2325

                    19                     20                     21
                     A                      A                      A
 Frequencies --   325.3610               355.5688               364.5673
 Red. masses --     9.8915                 5.5283                 6.7217
 Frc consts  --     0.6169                 0.4118                 0.5264
 IR Inten    --    14.6524                40.8579                 2.6196

                    22                     23                     24
                     A                      A                      A
 Frequencies --   417.1295               427.2001               447.7804
 Red. masses --     6.3543                 6.8601                 7.5136
 Frc consts  --     0.6514                 0.7376                 0.8876
 IR Inten    --    11.1860                 3.1499                 8.3583

                    25                     26                     27
                     A                      A                      A
 Frequencies --   454.0975               480.0116               504.9242
 Red. masses --     3.1563                 6.9842                 5.7889
 Frc consts  --     0.3835                 0.9481                 0.8696
 IR Inten    --    14.8638                 1.3416                 4.6299

                    28                     29                     30
                     A                      A                      A
 Frequencies --   524.1173               535.1317               544.1281
 Red. masses --    11.5557                 5.9105                 3.8357
 Frc consts  --     1.8703                 0.9972                 0.6691
 IR Inten    --     7.1083                 6.6485                 5.9360

                    31                     32                     33
                     A                      A                      A
 Frequencies --   570.1631               575.5722               583.7708
 Red. masses --     3.9043                 5.3042                 4.3945
 Frc consts  --     0.7478                 1.0353                 0.8824
 IR Inten    --    10.5364                20.0997                 7.0729

                    34                     35                     36
                     A                      A                      A
 Frequencies --   611.3326               615.7163               624.4444
 Red. masses --     3.9760                 2.6103                 3.6194
 Frc consts  --     0.8755                 0.5830                 0.8315
 IR Inten    --     3.5065                18.6050                37.9447

                    37                     38                     39
                     A                      A                      A
 Frequencies --   625.0961               654.7750               667.7923
 Red. masses --     5.3480                 6.8507                 3.6154
 Frc consts  --     1.2312                 1.7305                 0.9499
 IR Inten    --     6.2341                11.9158                31.4033

                    40                     41                     42
                     A                      A                      A
 Frequencies --   670.0848               680.0115               688.4169
 Red. masses --     5.4738                 4.8376                 3.8900
 Frc consts  --     1.4481                 1.3180                 1.0862
 IR Inten    --     2.9731                21.2378                 9.1784

                    43                     44                     45
                     A                      A                      A
 Frequencies --   698.4517               721.2792               729.8631
 Red. masses --     3.2816                 9.2506                 3.1983
 Frc consts  --     0.9432                 2.8355                 1.0038
 IR Inten    --    19.3388                 0.6490                 7.4214

                    46                     47                     48
                     A                      A                      A
 Frequencies --   763.6309               777.7332               779.7574
 Red. masses --     1.8961                 2.1104                 4.2435
 Frc consts  --     0.6514                 0.7521                 1.5202
 IR Inten    --    17.8377                30.0677                 5.5140

                    49                     50                     51
                     A                      A                      A
 Frequencies --   783.6888               801.2290               822.4199
 Red. masses --     1.5610                 3.9952                 2.3709
 Frc consts  --     0.5649                 1.5111                 0.9448
 IR Inten    --    51.9043                45.6010                52.2577

                    52                     53                     54
                     A                      A                      A
 Frequencies --   827.4545               835.7718               838.0071
 Red. masses --    11.1024                 1.7084                 5.3168
 Frc consts  --     4.4787                 0.7031                 2.1999
 IR Inten    --    27.3157                24.7479                50.3166

                    55                     56                     57
                     A                      A                      A
 Frequencies --   842.2607               878.5094               882.3151
 Red. masses --     6.7711                 1.6004                 5.4411
 Frc consts  --     2.8301                 0.7277                 2.4957
 IR Inten    --     3.6170                 1.1571                 2.2082

                    58                     59                     60
                     A                      A                      A
 Frequencies --   898.7211               907.3921               949.3467
 Red. masses --     1.5266                 7.0496                 1.5500
 Frc consts  --     0.7265                 3.4198                 0.8231
 IR Inten    --    15.2855                27.4674                 1.0314

                    61                     62                     63
                     A                      A                      A
 Frequencies --   951.3488               956.8741               967.5178
 Red. masses --     1.0675                 6.4479                 1.3609
 Frc consts  --     0.5693                 3.4784                 0.7506
 IR Inten    --   182.0502                11.8509                 0.8273

                    64                     65                     66
                     A                      A                      A
 Frequencies --   999.2376              1022.2808              1047.5966
 Red. masses --     1.3033                 1.3451                 2.8248
 Frc consts  --     0.7667                 0.8282                 1.8265
 IR Inten    --     1.4204               127.8126                18.7978

                    67                     68                     69
                     A                      A                      A
 Frequencies --  1059.2527              1081.7999              1084.8000
 Red. masses --     5.4350                 6.7941                 3.7764
 Frc consts  --     3.5929                 4.6846                 2.6184
 IR Inten    --     2.6236                19.6432                20.2646

                    70                     71                     72
                     A                      A                      A
 Frequencies --  1112.0197              1157.7291              1160.0760
 Red. masses --     6.0587                 2.4565                 2.0754
 Frc consts  --     4.4142                 1.9399                 1.6456
 IR Inten    --    21.1776                23.1542                 0.4163

                    73                     74                     75
                     A                      A                      A
 Frequencies --  1186.6297              1190.1271              1210.6639
 Red. masses --     1.1430                 1.2173                 1.7869
 Frc consts  --     0.9483                 1.0159                 1.5431
 IR Inten    --     0.8212                11.7154                 5.4610

                    76                     77                     78
                     A                      A                      A
 Frequencies --  1232.0586              1285.5188              1293.9382
 Red. masses --     2.3867                 2.2544                 2.3037
 Frc consts  --     2.1346                 2.1950                 2.2725
 IR Inten    --    15.1642                90.8760                20.7510

                    79                     80                     81
                     A                      A                      A
 Frequencies --  1300.4647              1303.1322              1312.5502
 Red. masses --     2.7862                 2.1991                 3.6859
 Frc consts  --     2.7762                 2.2002                 3.7414
 IR Inten    --    10.1722                19.5486                 4.2318

                    82                     83                     84
                     A                      A                      A
 Frequencies --  1332.7986              1358.9155              1371.2940
 Red. masses --     5.5524                 3.2879                 4.1594
 Frc consts  --     5.8111                 3.5773                 4.6083
 IR Inten    --    16.6123                28.5645                29.7885

                    85                     86                     87
                     A                      A                      A
 Frequencies --  1382.3697              1410.7048              1420.9488
 Red. masses --     9.3425                 5.0014                 2.6491
 Frc consts  --    10.5187                 5.8643                 3.1514
 IR Inten    --    15.8210                76.9443                20.1349

                    88                     89                     90
                     A                      A                      A
 Frequencies --  1433.7205              1443.1903              1459.3586
 Red. masses --     9.5391                 3.5213                 3.2831
 Frc consts  --    11.5528                 4.3212                 4.1196
 IR Inten    --    99.2742                39.8061                93.3590

                    91                     92                     93
                     A                      A                      A
 Frequencies --  1465.8252              1511.0510              1517.0798
 Red. masses --     2.7528                 6.3513                 5.0641
 Frc consts  --     3.4849                 8.5442                 6.8670
 IR Inten    --     3.8358                 9.1187                72.5208

                    94                     95                     96
                     A                      A                      A
 Frequencies --  1531.0082              1557.5170              1564.1747
 Red. masses --     6.3902                 4.9696                 6.4029
 Frc consts  --     8.8252                 7.1030                 9.2299
 IR Inten    --     0.7542                33.9105                43.7297

                    97                     98                     99
                     A                      A                      A
 Frequencies --  1568.2778              1603.6775              1606.4524
 Red. masses --     7.1759                 7.6510                 6.3921
 Frc consts  --    10.3986                11.5931                 9.7192
 IR Inten    --    41.9906                32.4162                18.5976

                   100                    101                    102
                     A                      A                      A
 Frequencies --  1658.5386              2237.6657              2252.1338
 Red. masses --     5.8568                 1.0304                 1.0522
 Frc consts  --     9.4921                 3.0399                 3.1444
 IR Inten    --     1.9623               187.7287               108.2733

                   103                    104                    105
                     A                      A                      A
 Frequencies --  2946.0513              3088.6425              3181.9973
 Red. masses --     1.0798                 1.0853                 1.0860
 Frc consts  --     5.5219                 6.1003                 6.4788
 IR Inten    --    33.4938                15.8339                 0.6382

                   106                    107                    108
                     A                      A                      A
 Frequencies --  3188.2046              3192.4912              3198.9584
 Red. masses --     1.0884                 1.0912                 1.0937
 Frc consts  --     6.5184                 6.5527                 6.5940
 IR Inten    --     1.4061                 2.8028                17.8782

                   109                    110                    111
                     A                      A                      A
 Frequencies --  3203.5646              3209.5834              3251.0342
 Red. masses --     1.0907                 1.0976                 1.0940
 Frc consts  --     6.5952                 6.6619                 6.8124
 IR Inten    --    14.9033                19.5727                 1.6679

 - Thermochemistry -
 -------------------
 Temperature   298.150 Kelvin.  Pressure   1.00000 Atm.
 Atom     1 has atomic number 14 and mass  27.97693

 Molecular mass:   413.01128 amu.
 Principal axes and moments of inertia in atomic units:
                           1         2         3
     Eigenvalues --  5279.92991********************
           X            0.99998  -0.00573   0.00043
           Y            0.00573   0.99998   0.00303
           Z           -0.00044  -0.00303   1.00000
 This molecule is an asymmetric top.
 Rotational symmetry number  1.
 Warning -- assumption of classical behavior for rotation
           may cause significant error
 Rotational temperatures (Kelvin)      0.01640     0.00340     0.00285
 Rotational constants (GHZ):           0.34181     0.07087     0.05933
 Zero-point vibrational energy     691955.4 (Joules/Mol)
                                  165.38130 (Kcal/Mol)
 Warning -- explicit consideration of  35 degrees of freedom as
           vibrations may cause significant error
 Vibrational temperatures:     20.23    42.46    72.96   110.53   125.62
          (Kelvin)            132.44   168.06   199.80   211.58   229.45
                              274.57   311.81   329.00   357.39   362.03
                              393.33   427.64   458.26   468.12   511.58
                              524.53   600.16   614.64   644.26   653.34
                              690.63   726.47   754.09   769.93   782.88
                              820.34   828.12   839.91   879.57   885.88
                              898.44   899.37   942.07   960.80   964.10
                              978.38   990.48  1004.92  1037.76  1050.11
                             1098.69  1118.98  1121.90  1127.55  1152.79
                             1183.28  1190.52  1202.49  1205.70  1211.82
                             1263.98  1269.45  1293.06  1305.53  1365.90
                             1368.78  1376.73  1392.04  1437.68  1470.83
                             1507.26  1524.03  1556.47  1560.78  1599.95
                             1665.71  1669.09  1707.29  1712.33  1741.87
                             1772.66  1849.57  1861.69  1871.08  1874.91
                             1888.46  1917.60  1955.17  1972.98  1988.92
                             2029.69  2044.43  2062.80  2076.43  2099.69
                             2108.99  2174.06  2182.74  2202.78  2240.92
                             2250.50  2256.40  2307.33  2311.32  2386.26
                             3219.50  3240.31  4238.71  4443.86  4578.18
                             4587.11  4593.28  4602.58  4609.21  4617.87
                             4677.51

 Zero-point correction=                           0.263552 (Hartree/Particle)
 Thermal correction to Energy=                    0.284769
 Thermal correction to Enthalpy=                  0.285713
 Thermal correction to Gibbs Free Energy=         0.212101
 Sum of electronic and zero-point Energies=          -2131.853725
 Sum of electronic and thermal Energies=             -2131.832508
 Sum of electronic and thermal Enthalpies=           -2131.831564
 Sum of electronic and thermal Free Energies=        -2131.905176

                     E (Thermal)             CV                S
                      KCal/Mol        Cal/Mol-Kelvin    Cal/Mol-Kelvin
 Total                  178.695             85.835            154.930
 Electronic               0.000              0.000              0.000
 Translational            0.889              2.981             43.946
 Rotational               0.889              2.981             36.657
 Vibrational            176.918             79.874             74.328
 Vibration     1          0.593              1.986              7.334
 Vibration     2          0.593              1.984              5.862
 Vibration     3          0.595              1.977              4.790
 Vibration     4          0.599              1.965              3.970
 Vibration     5          0.601              1.958              3.719
 Vibration     6          0.602              1.955              3.616
 Vibration     7          0.608              1.935              3.152
 Vibration     8          0.614              1.914              2.819
 Vibration     9          0.617              1.906              2.710
 Vibration    10          0.621              1.892              2.556
 Vibration    11          0.634              1.853              2.220
 Vibration    12          0.646              1.816              1.986
 Vibration    13          0.651              1.797              1.889
 Vibration    14          0.662              1.765              1.742
 Vibration    15          0.664              1.760              1.719
 Vibration    16          0.676              1.722              1.575
 Vibration    17          0.691              1.679              1.432
 Vibration    18          0.705              1.638              1.318
 Vibration    19          0.709              1.625              1.283
 Vibration    20          0.731              1.564              1.141
 Vibration    21          0.738              1.545              1.103
 Vibration    22          0.780              1.433              0.902
 Vibration    23          0.789              1.411              0.868
 Vibration    24          0.807              1.366              0.803
 Vibration    25          0.813              1.352              0.783
 Vibration    26          0.836              1.294              0.710
 Vibration    27          0.860              1.239              0.646
 Vibration    28          0.879              1.197              0.600
 Vibration    29          0.890              1.172              0.576
 Vibration    30          0.899              1.153              0.556
 Vibration    31          0.926              1.096              0.504
 Vibration    32          0.932              1.084              0.494
 Vibration    33          0.941              1.066              0.478
 Vibration    34          0.970              1.008              0.431
 Vibration    35          0.975              0.999              0.423

 Normal termination of Gaussian 09 at Sun Dec 29 18:47:36 2013.
