 Gaussian 09, Revision C.01,
 Gaussian 09:  EM64L-G09RevC.01 23-Sep-2011

 --------------------------------------------
 #B3LYP/6-31++G(d,p) opt scf=direct freq test
 --------------------------------------------

 Geom opt of No.83 candidate from the CEPDB database with SMILE code of
  C1ccc2c1c(sc2-c1cncs1)-c1cnc(-c2cccc3cscc23)c2nsnc12, HPC, 20131227,
 Shuo Dai, Gaussian09
 ----------------------------------------------------------------------
 Charge =  0 Multiplicity = 1

 SCF Done:  E(RB3LYP) =  -2695.33947795     A.U. after   25 cycles
 SCF Done:  E(RB3LYP) =  -2695.38039143     A.U. after   25 cycles
 SCF Done:  E(RB3LYP) =  -2695.41088153     A.U. after   16 cycles
 SCF Done:  E(RB3LYP) =  -2695.41937699     A.U. after   17 cycles
 SCF Done:  E(RB3LYP) =  -2695.42282844     A.U. after   17 cycles
 SCF Done:  E(RB3LYP) =  -2695.42381633     A.U. after   17 cycles
 SCF Done:  E(RB3LYP) =  -2695.42425528     A.U. after   14 cycles
 SCF Done:  E(RB3LYP) =  -2695.42453326     A.U. after   14 cycles
 SCF Done:  E(RB3LYP) =  -2695.42487102     A.U. after   14 cycles
 SCF Done:  E(RB3LYP) =  -2695.41854291     A.U. after   18 cycles
 SCF Done:  E(RB3LYP) =  -2695.42726838     A.U. after   13 cycles
 SCF Done:  E(RB3LYP) =  -2695.42728956     A.U. after   13 cycles
 SCF Done:  E(RB3LYP) =  -2695.42732426     A.U. after   14 cycles
 SCF Done:  E(RB3LYP) =  -2695.42737444     A.U. after   14 cycles
 SCF Done:  E(RB3LYP) =  -2695.42740626     A.U. after   13 cycles
 SCF Done:  E(RB3LYP) =  -2695.42750026     A.U. after   13 cycles
 SCF Done:  E(RB3LYP) =  -2695.42750243     A.U. after   12 cycles
 SCF Done:  E(RB3LYP) =  -2695.42750292     A.U. after   11 cycles
 SCF Done:  E(RB3LYP) =  -2695.42750302     A.U. after   11 cycles
 Optimization completed.
    -- Stationary point found.

 1\1\GINC-N032\FOpt\RB3LYP\6-31++G(d,p)\C23H12N4S4\ROOT\30-Dec-2013\0\\
 #B3LYP/6-31++G(d,p) opt scf=direct freq test\\Geom opt of No.83 candid
 ate from the CEPDB database with SMILE code of C1ccc2c1c(sc2-c1cncs1)-
 c1cnc(-c2cccc3cscc23)c2nsnc12, HPC, 20131227, Shuo Dai, Gaussian09\\0,
 1\C,-1.375062689,1.0959663,0.3319611827\C,-2.1604644465,-0.1882626906,
 0.5115403798\C,-1.3754001555,-1.2817856876,0.3896642633\C,-0.002099025
 9,-0.8541142208,0.1282999262\C,0.0224548771,0.5782991149,0.0889128026\
 C,1.2765522332,1.1114777597,-0.0862199684\S,2.455303895,-0.1961476049,

 Normal termination of Gaussian 09 at Mon Dec 30 02:11:31 2013.

 ----------------------------------------------------------------------
 #N Geom=AllCheck Guess=TCheck SCRF=Check Test GenChk RB3LYP/6-31++G(d,
 p) Freq
 ----------------------------------------------------------------------

 Geom opt of No.83 candidate from the CEPDB database with SMILE code of
  C1ccc2c1c(sc2-c1cncs1)-c1cnc(-c2cccc3cscc23)c2nsnc12, HPC, 20131227,
 Shuo Dai, Gaussian09
 ----------------------------------------------------------------------
 Charge =  0 Multiplicity = 1

                         Standard orientation:
 ---------------------------------------------------------------------
 Center     Atomic      Atomic             Coordinates (Angstroms)
 Number     Number       Type             X           Y           Z
 ---------------------------------------------------------------------
      1          6           0        2.155009    2.645400   -0.685902
      2          6           0        3.539416    3.210169   -0.936504
      3          6           0        4.503545    2.278162   -0.766823
      4          6           0        3.878153    1.009010   -0.398980
      5          6           0        2.459744    1.206579   -0.343792
      6          6           0        1.746346    0.064772   -0.069840
      7         16           0        2.863205   -1.284995    0.168040
      8          6           0        4.279430   -0.290623   -0.152534
      9          6           0        5.599231   -0.883279   -0.129523
     10          6           0        5.956519   -2.206350   -0.302163
     11          7           0        7.292570   -2.501566   -0.214987
     12          6           0        7.989420   -1.427073    0.020902
     13         16           0        7.057992    0.043854    0.170054
     14          6           0        0.307809   -0.176600    0.011676
     15          6           0       -0.270829   -1.360917   -0.424230
     16          7           0       -1.593439   -1.677052   -0.387171
     17          6           0       -2.491830   -0.829391    0.086362
     18          6           0       -3.905308   -1.273240    0.121976
     19          6           0       -4.169030   -2.558956    0.548120
     20          6           0       -5.493528   -3.083202    0.625670
     21          6           0       -6.574260   -2.328618    0.250885
     22          6           0       -6.364576   -1.002628   -0.237878
     23          6           0       -7.321809   -0.116726   -0.713429
     24         16           0       -6.602724    1.343312   -1.252261
     25          6           0       -5.016189    0.820534   -0.856329
     26          6           0       -5.016206   -0.453371   -0.306939
     27          6           0       -2.033991    0.433791    0.614162
     28          7           0       -2.777903    1.361070    1.231028
     29         16           0       -1.752282    2.544316    1.709840
     30          7           0       -0.329840    1.929562    1.162647
     31          6           0       -0.620170    0.759300    0.578449
     32          1           0        1.510086    2.737919   -1.570923
     33          1           0        1.634449    3.159394    0.130279
     34          1           0        3.709839    4.244267   -1.215180
     35          1           0        5.567155    2.439967   -0.891588
     36          1           0        5.253595   -3.002734   -0.516372
     37          1           0        9.068070   -1.407866    0.119060
     38          1           0        0.361057   -2.128637   -0.863005
     39          1           0       -3.334656   -3.185881    0.843948
     40          1           0       -5.634840   -4.095621    0.991709
     41          1           0       -7.583300   -2.726092    0.310007
     42          1           0       -8.390339   -0.264737   -0.783014
     43          1           0       -4.181279    1.481648   -1.026356
 ---------------------------------------------------------------------

 SCF Done:  E(RB3LYP) =  -2695.42750302     A.U. after    2 cycles

 The electronic state is 1-A.
 Alpha  occ. eigenvalues --  -89.00049 -88.93239 -88.93214 -88.92533 -14.39796
 Alpha  occ. eigenvalues --  -14.39447 -14.35729 -14.35420 -10.27099 -10.26729
 Alpha  occ. eigenvalues --  -10.26540 -10.26224 -10.25032 -10.24689 -10.24571
 Alpha  occ. eigenvalues --  -10.24453 -10.24070 -10.23218 -10.22491 -10.22351
 Alpha  occ. eigenvalues --  -10.21786 -10.21580 -10.21477 -10.21433 -10.21359
 Alpha  occ. eigenvalues --  -10.21104 -10.21057 -10.20963 -10.20829 -10.20453
 Alpha  occ. eigenvalues --  -10.20284  -8.05334  -7.99203  -7.99136  -7.98381
 Alpha  occ. eigenvalues --   -6.01888  -6.01304  -6.01105  -5.95600  -5.95519
 Alpha  occ. eigenvalues --   -5.95251  -5.95140  -5.94947  -5.94926  -5.94847
 Alpha  occ. eigenvalues --   -5.94452  -5.94044  -1.04516  -0.97660  -0.96605
 Alpha  occ. eigenvalues --   -0.92088  -0.91047  -0.90345  -0.85051  -0.84485
 Alpha  occ. eigenvalues --   -0.83532  -0.81409  -0.80371  -0.77925  -0.76309
 Alpha  occ. eigenvalues --   -0.74594  -0.74380  -0.72228  -0.71805  -0.69715
 Alpha  occ. eigenvalues --   -0.68141  -0.65189  -0.64653  -0.62388  -0.60673
 Alpha  occ. eigenvalues --   -0.59569  -0.59111  -0.58280  -0.57514  -0.55781
 Alpha  occ. eigenvalues --   -0.54937  -0.53623  -0.52803  -0.51997  -0.51132
 Alpha  occ. eigenvalues --   -0.48888  -0.48185  -0.47779  -0.47129  -0.46151
 Alpha  occ. eigenvalues --   -0.45631  -0.44651  -0.43664  -0.42977  -0.42800
 Alpha  occ. eigenvalues --   -0.42740  -0.42462  -0.41859  -0.41163  -0.40897
 Alpha  occ. eigenvalues --   -0.40579  -0.40105  -0.39493  -0.38892  -0.38499
 Alpha  occ. eigenvalues --   -0.37242  -0.37173  -0.36800  -0.35793  -0.35669
 Alpha  occ. eigenvalues --   -0.34847  -0.34183  -0.33680  -0.32761  -0.31613
 Alpha  occ. eigenvalues --   -0.30282  -0.30082  -0.29709  -0.28790  -0.28432
 Alpha  occ. eigenvalues --   -0.27894  -0.26318  -0.25723  -0.24345  -0.21592
 Alpha  occ. eigenvalues --   -0.20632
 Alpha virt. eigenvalues --   -0.11796  -0.07540  -0.06881  -0.03409  -0.02963
 Alpha virt. eigenvalues --   -0.02106  -0.02068  -0.01245  -0.00856  -0.00503
 Alpha virt. eigenvalues --   -0.00296   0.00016   0.00334   0.00455   0.00718

 Mulliken atomic charges:
              1
     1  C   -1.117134
     2  C    0.212106
     3  C   -0.616583
     4  C    0.652601
     5  C    1.011969
     6  C   -0.291479
     7  S    0.001318
     8  C   -0.394345
     9  C   -0.296006
    10  C   -0.286486
    11  N   -0.073541
    12  C   -0.088604
    13  S    0.288644
    14  C   -0.011311
    15  C   -0.120918
    16  N   -0.054554
    17  C   -0.678389
    18  C   -0.479238
    19  C   -0.032627
    20  C    0.043012
    21  C   -0.865338
    22  C    0.117660
    23  C    0.570484
    24  S    0.110525
    25  C   -0.084053
    26  C    0.099788
    27  C    0.227028
    28  N   -0.352451
    29  S    1.014014
    30  N   -0.408737
    31  C    0.137496
    32  H    0.166862
    33  H    0.177619
    34  H    0.140180
    35  H    0.087189
    36  H    0.175416
    37  H    0.189011
    38  H    0.165524
    39  H    0.147359
    40  H    0.123460
    41  H    0.075373
    42  H    0.188904
    43  H    0.128248
 Sum of Mulliken atomic charges =  -0.00000

 Dipole moment (field-independent basis, Debye):
    X=             -1.4229    Y=              3.2854    Z=              0.0280  Tot=              3.5804
 Quadrupole moment (field-independent basis, Debye-Ang):
   XX=           -191.9412   YY=           -199.4229   ZZ=           -210.7028
   XY=             16.5743   XZ=             -0.3539   YZ=             -5.2691

  Exact polarizability: 719.102 -11.408 414.657   2.097 -13.431 215.238
 Approx polarizability: 998.404 -25.447 832.119   3.434 -16.857 374.070

                     1                      2                      3
                     A                      A                      A
 Frequencies --    15.4714                19.6785                24.9964
 Red. masses --    10.1086                 7.9301                 8.6172
 Frc consts  --     0.0014                 0.0018                 0.0032
 IR Inten    --     0.0489                 0.4913                 0.2983

                     4                      5                      6
                     A                      A                      A
 Frequencies --    35.6375                47.1249                62.3809
 Red. masses --     7.1775                 8.9158                 8.0456
 Frc consts  --     0.0054                 0.0117                 0.0184
 IR Inten    --     0.2797                 0.2938                 0.1360

                     7                      8                      9
                     A                      A                      A
 Frequencies --    67.6781                95.3721               106.5008
 Red. masses --     9.8181                 5.5385                 7.3328
 Frc consts  --     0.0265                 0.0297                 0.0490
 IR Inten    --     0.1030                 0.1274                 0.0197

                    10                     11                     12
                     A                      A                      A
 Frequencies --   137.0547               151.2316               170.5880
 Red. masses --     8.6297                 5.7322                 4.7494
 Frc consts  --     0.0955                 0.0772                 0.0814
 IR Inten    --     0.3590                 1.1078                 0.5678

                    13                     14                     15
                     A                      A                      A
 Frequencies --   173.0006               190.0493               196.6006
 Red. masses --     6.6913                 5.6177                 8.1117
 Frc consts  --     0.1180                 0.1195                 0.1847
 IR Inten    --     1.4151                 0.3747                 3.1527

                    16                     17                     18
                     A                      A                      A
 Frequencies --   202.5207               224.0005               234.1174
 Red. masses --     6.6870                 7.7446                 6.0049
 Frc consts  --     0.1616                 0.2290                 0.1939
 IR Inten    --     1.6975                 0.4225                 1.6992

                    19                     20                     21
                     A                      A                      A
 Frequencies --   265.1169               281.0800               307.6120
 Red. masses --     4.6765                 6.8055                 9.3873
 Frc consts  --     0.1937                 0.3168                 0.5234
 IR Inten    --     1.7036                 0.5935                 6.0972

                    22                     23                     24
                     A                      A                      A
 Frequencies --   335.2294               354.4713               390.0324
 Red. masses --     5.0994                 6.7203                 4.8048
 Frc consts  --     0.3376                 0.4975                 0.4306
 IR Inten    --     4.6803                 0.7663                 1.2048

                    25                     26                     27
                     A                      A                      A
 Frequencies --   422.6144               438.8298               448.5879
 Red. masses --     4.1573                 4.2728                 6.0074
 Frc consts  --     0.4375                 0.4848                 0.7122
 IR Inten    --     4.6333                 2.6865                 2.0429

                    28                     29                     30
                     A                      A                      A
 Frequencies --   468.6227               480.2575               501.1023
 Red. masses --     6.5401                 8.1210                 7.2010
 Frc consts  --     0.8462                 1.1036                 1.0654
 IR Inten    --     1.2820                 1.3533                 3.5944

                    31                     32                     33
                     A                      A                      A
 Frequencies --   506.4417               516.5765               527.7153
 Red. masses --     9.9315                 7.8301                 8.5262
 Frc consts  --     1.5008                 1.2311                 1.3990
 IR Inten    --    10.2707                11.6778                 1.2920

                    34                     35                     36
                     A                      A                      A
 Frequencies --   537.4729               544.3507               571.0345
 Red. masses --     7.8800                 3.6125                 7.5355
 Frc consts  --     1.3412                 0.6307                 1.4477
 IR Inten    --     0.8037                12.2038                16.6457

                    37                     38                     39
                     A                      A                      A
 Frequencies --   576.0521               600.1160               610.8150
 Red. masses --     6.2528                 6.4817                 4.3376
 Frc consts  --     1.2225                 1.3753                 0.9535
 IR Inten    --     2.6651                14.2378                 5.5411

                    40                     41                     42
                     A                      A                      A
 Frequencies --   615.9081               632.1918               635.9713
 Red. masses --     5.9476                11.9039                 1.2555
 Frc consts  --     1.3293                 2.8031                 0.2992
 IR Inten    --     6.9659                 1.5732                 2.5822

                    43                     44                     45
                     A                      A                      A
 Frequencies --   651.9339               676.8702               681.1728
 Red. masses --     6.2260                 6.6216                 2.2456
 Frc consts  --     1.5591                 1.7874                 0.6139
 IR Inten    --     4.6426                 3.7560                20.0264

                    46                     47                     48
                     A                      A                      A
 Frequencies --   697.8442               733.4153               734.8489
 Red. masses --     6.8629                 8.7367                 1.3054
 Frc consts  --     1.9691                 2.7689                 0.4153
 IR Inten    --     3.1076                 0.5907                 3.4568

                    49                     50                     51
                     A                      A                      A
 Frequencies --   746.6530               752.1160               774.3438
 Red. masses --     6.4103                 2.1367                 3.9512
 Frc consts  --     2.1056                 0.7121                 1.3959
 IR Inten    --     0.6373                20.1040                17.7896

                    52                     53                     54
                     A                      A                      A
 Frequencies --   780.8224               781.4273               803.8680
 Red. masses --     1.2039                 2.6675                 4.1542
 Frc consts  --     0.4325                 0.9597                 1.5816
 IR Inten    --    28.1191                41.2472                31.7386

                    55                     56                     57
                     A                      A                      A
 Frequencies --   817.7155               823.7309               833.9430
 Red. masses --     6.5480                 3.4016                10.5823
 Frc consts  --     2.5797                 1.3599                 4.3361
 IR Inten    --    11.6464                18.5358                21.8290

                    58                     59                     60
                     A                      A                      A
 Frequencies --   844.7124               847.3060               856.2297
 Red. masses --     7.3785                 8.0463                 5.4761
 Frc consts  --     3.1020                 3.4035                 2.3654
 IR Inten    --    28.5401                 8.2609                42.6729

                    61                     62                     63
                     A                      A                      A
 Frequencies --   860.9457               878.7110               884.4138
 Red. masses --     1.5258                 7.7765                 7.2224
 Frc consts  --     0.6664                 3.5377                 3.3284
 IR Inten    --     8.4757                 7.0208                 5.8690

                    64                     65                     66
                     A                      A                      A
 Frequencies --   885.0924               900.7894               920.0112
 Red. masses --     4.3888                 4.5923                 3.4882
 Frc consts  --     2.0257                 2.1955                 1.7395
 IR Inten    --    31.3917                 2.4027                 3.2210

                    67                     68                     69
                     A                      A                      A
 Frequencies --   928.5750               937.4402               945.0252
 Red. masses --     1.8376                 2.4569                 1.6883
 Frc consts  --     0.9336                 1.2721                 0.8883
 IR Inten    --     1.0718                 6.6812                 5.0454

                    70                     71                     72
                     A                      A                      A
 Frequencies --   951.1270               952.6832               962.9719
 Red. masses --     2.3491                 1.8114                 1.5811
 Frc consts  --     1.2521                 0.9687                 0.8639
 IR Inten    --    13.3697                 4.4759                 0.2814

                    73                     74                     75
                     A                      A                      A
 Frequencies --   984.6347              1028.1385              1049.3609
 Red. masses --     1.3206                 4.3571                 3.8598
 Frc consts  --     0.7543                 2.7136                 2.5042
 IR Inten    --     0.4394                17.8626                12.7143

                    76                     77                     78
                     A                      A                      A
 Frequencies --  1083.6337              1132.5544              1149.6448
 Red. masses --     2.5510                 1.3337                 1.1307
 Frc consts  --     1.7649                 1.0080                 0.8805
 IR Inten    --     1.7082                 4.8046                 4.4785

                    79                     80                     81
                     A                      A                      A
 Frequencies --  1158.1315              1163.1162              1179.4712
 Red. masses --     2.1024                 1.9409                 1.3516
 Frc consts  --     1.6614                 1.5470                 1.1079
 IR Inten    --    26.5416                 0.4740                 4.8588

                    82                     83                     84
                     A                      A                      A
 Frequencies --  1192.6367              1203.0984              1231.8623
 Red. masses --     2.5094                 2.0097                 1.7985
 Frc consts  --     2.1030                 1.7139                 1.6080
 IR Inten    --     7.1863                 6.5033                 3.8833

                    85                     86                     87
                     A                      A                      A
 Frequencies --  1246.9345              1260.7604              1271.9382
 Red. masses --     2.5206                 1.9713                 1.7347
 Frc consts  --     2.3091                 1.8461                 1.6535
 IR Inten    --    19.4550                 9.0053                 1.4670

                    88                     89                     90
                     A                      A                      A
 Frequencies --  1288.6030              1330.1537              1336.4396
 Red. masses --     2.7574                 2.0118                 3.7783
 Frc consts  --     2.6977                 2.0972                 3.9760
 IR Inten    --     4.1732                 2.9075                 8.2246

                    91                     92                     93
                     A                      A                      A
 Frequencies --  1340.4294              1357.7022              1367.6098
 Red. masses --     2.4948                 7.5071                 2.4577
 Frc consts  --     2.6410                 8.1532                 2.7083
 IR Inten    --    43.4185                 6.5240                61.1984

                    94                     95                     96
                     A                      A                      A
 Frequencies --  1373.7053              1376.6998              1386.8566
 Red. masses --     2.1528                 5.1222                 4.6438
 Frc consts  --     2.3936                 5.7199                 5.2625
 IR Inten    --     4.7144                19.0510                27.0960

                    97                     98                     99
                     A                      A                      A
 Frequencies --  1400.7853              1407.4563              1450.4063
 Red. masses --     3.5430                 9.2769                 1.4490
 Frc consts  --     4.0960                10.8273                 1.7960
 IR Inten    --     8.3498                11.5041                23.7087

                   100                    101                    102
                     A                      A                      A
 Frequencies --  1455.2471              1462.7593              1502.7338
 Red. masses --     2.9826                 3.6282                 7.5573
 Frc consts  --     3.7216                 4.5738                10.0550
 IR Inten    --    21.9124                28.0149               187.4644

                   103                    104                    105
                     A                      A                      A
 Frequencies --  1527.0762              1546.5056              1550.4680
 Red. masses --     5.5366                 5.2014                 5.0069
 Frc consts  --     7.6071                 7.3295                 7.0915
 IR Inten    --    42.0378                 3.7747                 9.4051

                   106                    107                    108
                     A                      A                      A
 Frequencies --  1556.5474              1567.2661              1580.8866
 Red. masses --     8.4198                 5.9531                 7.8526
 Frc consts  --    12.0193                 8.6155                11.5628
 IR Inten    --     2.4461                28.9993                34.5731

                   109                    110                    111
                     A                      A                      A
 Frequencies --  1607.1526              1633.1312              1650.1667
 Red. masses --     6.3278                 9.1161                 5.9658
 Frc consts  --     9.6297                14.3252                 9.5714
 IR Inten    --     3.1981                40.5682                 2.1596

                   112                    113                    114
                     A                      A                      A
 Frequencies --  3035.3207              3082.7372              3185.7684
 Red. masses --     1.0682                 1.0925                 1.0864
 Frc consts  --     5.7985                 6.1171                 6.4966
 IR Inten    --    10.0819                 3.6835                 2.4979

                   115                    116                    117
                     A                      A                      A
 Frequencies --  3186.2884              3201.7768              3215.0067
 Red. masses --     1.0903                 1.0938                 1.0936
 Frc consts  --     6.5215                 6.6065                 6.6599
 IR Inten    --    27.9795                26.2113                 8.0214

                   118                    119                    120
                     A                      A                      A
 Frequencies --  3216.2192              3230.8722              3240.7477
 Red. masses --     1.0883                 1.0925                 1.0966
 Frc consts  --     6.6326                 6.7190                 6.7853
 IR Inten    --     2.4116                 7.3591                 3.7505

                   121                    122                    123
                     A                      A                      A
 Frequencies --  3241.2844              3265.0964              3291.4978
 Red. masses --     1.0992                 1.0934                 1.0932
 Frc consts  --     6.8043                 6.8677                 6.9779
 IR Inten    --    12.6071                 0.7462                 0.3627

 - Thermochemistry -
 -------------------
 Temperature   298.150 Kelvin.  Pressure   1.00000 Atm.
 Atom     1 has atomic number  6 and mass  12.00000

 Molecular mass:   471.99448 amu.
 Principal axes and moments of inertia in atomic units:
                           1         2         3
     Eigenvalues --  5756.29762********************
           X            0.99998   0.00659  -0.00141
           Y           -0.00661   0.99986  -0.01543
           Z            0.00130   0.01544   0.99988
 This molecule is an asymmetric top.
 Rotational symmetry number  1.
 Warning -- assumption of classical behavior for rotation
           may cause significant error
 Rotational temperatures (Kelvin)      0.01505     0.00231     0.00209
 Rotational constants (GHZ):           0.31352     0.04807     0.04356
 Zero-point vibrational energy     773710.3 (Joules/Mol)
                                  184.92120 (Kcal/Mol)
 Warning -- explicit consideration of  40 degrees of freedom as
           vibrations may cause significant error
 Vibrational temperatures:     22.26    28.31    35.96    51.27    67.80
          (Kelvin)             89.75    97.37   137.22   153.23   197.19
                              217.59   245.44   248.91   273.44   282.86
                              291.38   322.29   336.84   381.44   404.41
                              442.58   482.32   510.00   561.17   608.05
                              631.38   645.42   674.24   690.98   720.97
                              728.66   743.24   759.26   773.30   783.20
                              821.59   828.81   863.43   878.83   886.15
                              909.58   915.02   937.99   973.86   980.05
                             1004.04  1055.22  1057.28  1074.27  1082.13
                             1114.11  1123.43  1124.30  1156.59  1176.51
                             1185.16  1199.86  1215.35  1219.08  1231.92
                             1238.71  1264.27  1272.47  1273.45  1296.03
                             1323.69  1336.01  1348.77  1359.68  1368.46
                             1370.70  1385.50  1416.67  1479.26  1509.79
                             1559.11  1629.49  1654.08  1666.29  1673.46
                             1696.99  1715.94  1730.99  1772.37  1794.06
                             1813.95  1830.03  1854.01  1913.79  1922.84
                             1928.58  1953.43  1967.68  1976.45  1980.76
                             1995.37  2015.42  2025.01  2086.81  2093.77
                             2104.58  2162.10  2197.12  2225.07  2230.77
                             2239.52  2254.94  2274.54  2312.33  2349.71
                             2374.22  4367.14  4435.37  4583.60  4584.35
                             4606.64  4625.67  4627.42  4648.50  4662.71
                             4663.48  4697.74  4735.73

 Zero-point correction=                           0.294691 (Hartree/Particle)
 Thermal correction to Energy=                    0.318991
 Thermal correction to Enthalpy=                  0.319935
 Thermal correction to Gibbs Free Energy=         0.237281
 Sum of electronic and zero-point Energies=          -2695.132812
 Sum of electronic and thermal Energies=             -2695.108512
 Sum of electronic and thermal Enthalpies=           -2695.107568
 Sum of electronic and thermal Free Energies=        -2695.190222

                     E (Thermal)             CV                S
                      KCal/Mol        Cal/Mol-Kelvin    Cal/Mol-Kelvin
 Total                  200.170             95.637            173.961
 Electronic               0.000              0.000              0.000
 Translational            0.889              2.981             44.344
 Rotational               0.889              2.981             37.435
 Vibrational            198.393             89.675             92.182
 Vibration     1          0.593              1.986              7.144
 Vibration     2          0.593              1.986              6.666
 Vibration     3          0.593              1.985              6.191
 Vibration     4          0.594              1.982              5.488
 Vibration     5          0.595              1.979              4.935
 Vibration     6          0.597              1.972              4.380
 Vibration     7          0.598              1.970              4.220
 Vibration     8          0.603              1.952              3.547
 Vibration     9          0.605              1.944              3.332
 Vibration    10          0.614              1.916              2.845
 Vibration    11          0.619              1.901              2.657
 Vibration    12          0.626              1.879              2.429
 Vibration    13          0.627              1.876              2.403
 Vibration    14          0.633              1.854              2.227
 Vibration    15          0.636              1.845              2.165
 Vibration    16          0.639              1.836              2.110
 Vibration    17          0.649              1.805              1.927
 Vibration    18          0.654              1.789              1.847
 Vibration    19          0.671              1.737              1.628
 Vibration    20          0.681              1.709              1.527
 Vibration    21          0.697              1.659              1.375
 Vibration    22          0.716              1.605              1.235
 Vibration    23          0.730              1.566              1.146
 Vibration    24          0.758              1.491              1.000
 Vibration    25          0.785              1.421              0.883
 Vibration    26          0.799              1.386              0.830
 Vibration    27          0.808              1.364              0.800
 Vibration    28          0.826              1.320              0.741
 Vibration    29          0.837              1.294              0.709
 Vibration    30          0.856              1.248              0.655
 Vibration    31          0.862              1.236              0.642
 Vibration    32          0.872              1.213              0.618
 Vibration    33          0.883              1.189              0.592
 Vibration    34          0.892              1.167              0.571
 Vibration    35          0.899              1.152              0.556
 Vibration    36          0.927              1.094              0.502
 Vibration    37          0.932              1.083              0.493
 Vibration    38          0.958              1.032              0.449
 Vibration    39          0.970              1.009              0.431
 Vibration    40          0.975              0.998              0.423

 Optimization completed.
    -- Stationary point found.

 1\1\GINC-N032\Freq\RB3LYP\6-31++G(d,p)\C23H12N4S4\ROOT\30-Dec-2013\0\\
 #N Geom=AllCheck Guess=TCheck SCRF=Check Test GenChk RB3LYP/6-31++G(d,
 p) Freq\\Geom opt of No.83 candidate from the CEPDB database with SMIL
 E code of C1ccc2c1c(sc2-c1cncs1)-c1cnc(-c2cccc3cscc23)c2nsnc12, HPC, 2
 0131227, Shuo Dai, Gaussian09\\0,1\C,-1.375062689,1.0959663,0.33196118
 27\C,-2.1604644465,-0.1882626906,0.5115403798\C,-1.3754001555,-1.28178
 56876,0.3896642633\C,-0.0020990259,-0.8541142208,0.1282999262\C,0.0224
 548771,0.5782991149,0.0889128026\C,1.2765522332,1.1114777597,-0.086219

 Normal termination of Gaussian 09 at Mon Dec 30 04:33:54 2013.
