 Gaussian 09, Revision C.01,
 Gaussian 09:  EM64L-G09RevC.01 23-Sep-2011

 --------------------------------------------
 #B3LYP/6-31++G(d,p) opt scf=direct freq test
 --------------------------------------------

 Geom opt of No.64 candidate from the CEPDB database with SMILE code of
  c1scc2c1c1cc([nH]c1c1cnc3ccc4ccccc4c3c21)-c1cncc2nsnc12, HPC, 2013122
 7, Shuo Dai, Gaussian09
 ----------------------------------------------------------------------
 Charge =  0 Multiplicity = 1

 SCF Done:  E(RB3LYP) =  -2067.79750245     A.U. after   33 cycles
 SCF Done:  E(RB3LYP) =  -2067.93989596     A.U. after   32 cycles
 SCF Done:  E(RB3LYP) =  -2068.09002482     A.U. after   25 cycles
 SCF Done:  E(RB3LYP) =  -2068.04889220     A.U. after   30 cycles
 SCF Done:  E(RB3LYP) =  -2068.10876664     A.U. after   27 cycles
 SCF Done:  E(RB3LYP) =  -2068.23821993     A.U. after   28 cycles
 SCF Done:  E(RB3LYP) =  -2068.29517577     A.U. after   32 cycles
 SCF Done:  E(RB3LYP) =  -2068.28505095     A.U. after   27 cycles
 SCF Done:  E(RB3LYP) =  -2068.32082218     A.U. after   27 cycles
 SCF Done:  E(RB3LYP) =  -2068.36265365     A.U. after   27 cycles
 SCF Done:  E(RB3LYP) =  -2068.55991528     A.U. after   29 cycles
 SCF Done:  E(RB3LYP) =  -2068.55992392     A.U. after   20 cycles
 SCF Done:  E(RB3LYP) =  -2068.55992489     A.U. after   27 cycles
 SCF Done:  E(RB3LYP) =  -2068.55992524     A.U. after   24 cycles
 SCF Done:  E(RB3LYP) =  -2068.55992541     A.U. after   23 cycles
 SCF Done:  E(RB3LYP) =  -2068.55992557     A.U. after   31 cycles
 SCF Done:  E(RB3LYP) =  -2068.55992569     A.U. after   18 cycles
 SCF Done:  E(RB3LYP) =  -2068.55992580     A.U. after   22 cycles
 SCF Done:  E(RB3LYP) =  -2068.55992585     A.U. after   20 cycles
 Optimization completed.
    -- Stationary point found.

 1\1\GINC-N094\FOpt\RB3LYP\6-31++G(d,p)\C26H13N5S2\SHUO\30-Dec-2013\0\\
 #B3LYP/6-31++G(d,p) opt scf=direct freq test\\Geom opt of No.64 candid
 ate from the CEPDB database with SMILE code of c1scc2c1c1cc([nH]c1c1cn
 c3ccc4ccccc4c3c21)-c1cncc2nsnc12, HPC, 20131227, Shuo Dai, Gaussian09\
 \0,1\C,2.9261053778,-1.3852021576,-0.2742889693\S,2.5937729189,-3.0818
 854536,-0.2858715728\C,0.8951400371,-2.825212795,-0.1755309411\C,0.585
 3900413,-1.4828161839,-0.1273868619\C,1.767383129,-0.6442516551,-0.186
 5274087\C,1.599350946,0.7903240412,-0.1352552396\C,2.5004407318,1.8784

 Normal termination of Gaussian 09 at Mon Dec 30 06:29:19 2013.

 ----------------------------------------------------------------------
 #N Geom=AllCheck Guess=TCheck SCRF=Check Test GenChk RB3LYP/6-31++G(d,
 p) Freq
 ----------------------------------------------------------------------

 Geom opt of No.64 candidate from the CEPDB database with SMILE code of
  c1scc2c1c1cc([nH]c1c1cnc3ccc4ccccc4c3c21)-c1cncc2nsnc12, HPC, 2013122
 7, Shuo Dai, Gaussian09
 ----------------------------------------------------------------------
 Charge =  0 Multiplicity = 1

                         Standard orientation:
 ---------------------------------------------------------------------
 Center     Atomic      Atomic             Coordinates (Angstroms)
 Number     Number       Type             X           Y           Z
 ---------------------------------------------------------------------
      1          6           0       -1.248295    4.545154   -0.099544
      2         16           0        0.146274    5.566309   -0.057897
      3          6           0        1.220048    4.222340    0.006665
      4          6           0        0.537347    3.024771    0.000338
      5          6           0       -0.899518    3.212346   -0.063154
      6          6           0       -1.748911    2.042991   -0.066586
      7          6           0       -3.149045    1.853972   -0.070660
      8          6           0       -3.389197    0.477909   -0.033704
      9          7           0       -2.161614   -0.160245   -0.001063
     10          1           0       -2.072926   -1.168775    0.027548
     11          6           0       -1.153141    0.766463   -0.027914
     12          6           0        0.262895    0.543913    0.000486
     13          6           0        0.884099   -0.728378    0.007618
     14          7           0        2.186168   -0.924784    0.065677
     15          6           0        3.029646    0.156687    0.126234
     16          6           0        4.466691   -0.080611    0.145170
     17          6           0        5.028668   -1.305446    0.011263
     18          6           0        6.462469   -1.599401    0.034929
     19          6           0        7.473633   -0.664650    0.399725
     20          6           0        8.821145   -0.999880    0.313734
     21          6           0        9.227180   -2.260071   -0.147814
     22          6           0        8.258133   -3.207861   -0.536394
     23          6           0        6.956014   -2.829613   -0.347893
     24          6           0        2.481447    1.424685    0.159381
     25          6           0        1.128696    1.689201    0.036639
     26          6           0       -4.636961   -0.261709   -0.029327
     27          6           0       -5.879136    0.364964   -0.065843
     28          7           0       -7.094589   -0.253420   -0.061617
     29          6           0       -7.165803   -1.565458   -0.020831
     30          6           0       -5.979673   -2.355822    0.019005
     31          7           0       -5.903498   -3.693778    0.061699
     32         16           0       -4.310739   -4.071378    0.093382
     33          7           0       -3.662755   -2.556017    0.054360
     34          6           0       -4.693199   -1.697874    0.014778
     35          1           0       -2.236690    4.979434   -0.153130
     36          1           0        2.290411    4.367698    0.045008
     37          1           0       -3.903833    2.626396   -0.093664
     38          1           0        0.276940   -1.629852   -0.072343
     39          1           0        5.073764    0.811334    0.267929
     40          1           0        4.374767   -2.156364   -0.153542
     41          1           0        7.181729    0.335554    0.712978
     42          1           0        9.571066   -0.267795    0.598631
     43          1           0       10.280933   -2.527717   -0.175326
     44          1           0        8.551029   -4.195331   -0.883530
     45          1           0       -5.928020    1.448780   -0.101092
     46          1           0       -8.145090   -2.036286   -0.018415
 ---------------------------------------------------------------------

 SCF Done:  E(RB3LYP) =  -2068.55992585     A.U. after    7 cycles

 The electronic state is 1-A.
 Alpha  occ. eigenvalues --  -89.00948 -88.92975 -14.40719 -14.40700 -14.40352
 Alpha  occ. eigenvalues --  -14.36651 -14.35584 -10.27944 -10.27172 -10.25666
 Alpha  occ. eigenvalues --  -10.25423 -10.25021 -10.24824 -10.24663 -10.24328
 Alpha  occ. eigenvalues --  -10.24273 -10.23062 -10.22951 -10.22807 -10.22757
 Alpha  occ. eigenvalues --  -10.22739 -10.22576 -10.22008 -10.21908 -10.21854
 Alpha  occ. eigenvalues --  -10.21787 -10.21597 -10.21278 -10.21150 -10.20802
 Alpha  occ. eigenvalues --  -10.20640 -10.20586 -10.20559  -8.06242  -7.98870
 Alpha  occ. eigenvalues --   -6.02799  -6.02217  -6.01999  -5.95272  -5.94892
 Alpha  occ. eigenvalues --   -5.94641  -1.05350  -1.00948  -0.96814  -0.95896
 Alpha  occ. eigenvalues --   -0.92553  -0.90363  -0.88084  -0.84988  -0.83458
 Alpha  occ. eigenvalues --   -0.81945  -0.81521  -0.80361  -0.78596  -0.76143
 Alpha  occ. eigenvalues --   -0.75809  -0.75003  -0.73305  -0.72238  -0.69446
 Alpha  occ. eigenvalues --   -0.66467  -0.65815  -0.64955  -0.63504  -0.62576
 Alpha  occ. eigenvalues --   -0.61412  -0.60699  -0.60280  -0.58492  -0.57023
 Alpha  occ. eigenvalues --   -0.55618  -0.54518  -0.53920  -0.52757  -0.52149
 Alpha  occ. eigenvalues --   -0.50692  -0.49702  -0.49047  -0.48657  -0.48649
 Alpha  occ. eigenvalues --   -0.47363  -0.46366  -0.45518  -0.45397  -0.45046
 Alpha  occ. eigenvalues --   -0.44771  -0.43641  -0.42718  -0.42088  -0.41972
 Alpha  occ. eigenvalues --   -0.41862  -0.41227  -0.40659  -0.40557  -0.39942
 Alpha  occ. eigenvalues --   -0.39320  -0.39244  -0.38241  -0.37365  -0.36821
 Alpha  occ. eigenvalues --   -0.36791  -0.35953  -0.35812  -0.33806  -0.33719
 Alpha  occ. eigenvalues --   -0.31696  -0.31139  -0.30501  -0.30135  -0.28843
 Alpha  occ. eigenvalues --   -0.28527  -0.28223  -0.27269  -0.24809  -0.23985
 Alpha  occ. eigenvalues --   -0.23121  -0.20082  -0.18771
 Alpha virt. eigenvalues --   -0.16692  -0.12487  -0.08231  -0.05289  -0.04604
 Alpha virt. eigenvalues --   -0.03580  -0.03132  -0.02974  -0.02015  -0.01155
 Alpha virt. eigenvalues --   -0.00828  -0.00396  -0.00344   0.00198   0.00390

 Mulliken atomic charges:
              1
     1  C    0.650907
     2  S    0.000661
     3  C    0.374090
     4  C   -0.347399
     5  C   -0.082471
     6  C    0.285068
     7  C   -0.269683
     8  C    0.096529
     9  N   -0.071940
    10  H    0.552693
    11  C   -0.611808
    12  C   -0.770720
    13  C   -0.093504
    14  N    0.006595
    15  C    0.039301
    16  C   -0.280950
    17  C   -0.044067
    18  C    1.136386
    19  C   -1.355111
    20  C    0.198857
    21  C   -0.336833
    22  C    0.225857
    23  C   -0.569188
    24  C   -0.112318
    25  C    0.477134
    26  C   -0.838370
    27  C    0.169500
    28  N   -0.079001
    29  C   -0.364900
    30  C    0.089745
    31  N   -0.395208
    32  S    0.941273
    33  N   -0.495331
    34  C    0.092457
    35  H    0.178312
    36  H    0.185682
    37  H    0.057212
    38  H    0.160121
    39  H    0.168688
    40  H    0.164978
    41  H    0.035996
    42  H    0.142458
    43  H    0.123267
    44  H    0.144138
    45  H    0.236193
    46  H    0.184705
 Sum of Mulliken atomic charges =  -0.00000

 Dipole moment (field-independent basis, Debye):
    X=              1.0237    Y=             -0.5215    Z=             -0.1081  Tot=              1.1540
 Quadrupole moment (field-independent basis, Debye-Ang):
   XX=           -183.3967   YY=           -191.4055   ZZ=           -210.4159
   XY=              0.8131   XZ=             -0.0036   YZ=              1.5869

  Exact polarizability:1294.071-179.724 618.667 -11.341  16.216 182.341
 Approx polarizability:4881.561********3704.093-368.597 362.728 342.330

                     1                      2                      3
                     A                      A                      A
 Frequencies --    18.0504                24.1745                25.1866
 Red. masses --     8.0419                 9.7152                 4.7943
 Frc consts  --     0.0015                 0.0033                 0.0018
 IR Inten    --     0.1431                 0.6046                 0.7736

                     4                      5                      6
                     A                      A                      A
 Frequencies --    29.2246                47.0126                61.1281
 Red. masses --     6.8829                 7.2310                 8.0565
 Frc consts  --     0.0035                 0.0094                 0.0177
 IR Inten    --     0.2632                 1.1535                 0.5093

                     7                      8                      9
                     A                      A                      A
 Frequencies --    82.6525                90.5513               113.0937
 Red. masses --     5.8972                 5.0524                 6.5954
 Frc consts  --     0.0237                 0.0244                 0.0497
 IR Inten    --     2.1348                 1.4239                 2.7936

                    10                     11                     12
                     A                      A                      A
 Frequencies --   125.9491               131.8638               149.8638
 Red. masses --     6.6158                 5.5561                 8.8689
 Frc consts  --     0.0618                 0.0569                 0.1174
 IR Inten    --     0.6807                 6.9574                 0.1595

                    13                     14                     15
                     A                      A                      A
 Frequencies --   167.0190               176.7882               188.0730
 Red. masses --     8.7460                 6.3420                 4.7329
 Frc consts  --     0.1437                 0.1168                 0.0986
 IR Inten    --     8.9808                 0.5914                 1.0817

                    16                     17                     18
                     A                      A                      A
 Frequencies --   214.3308               219.0883               254.0514
 Red. masses --     6.5446                 6.1606                 4.0779
 Frc consts  --     0.1771                 0.1742                 0.1551
 IR Inten    --     2.9316                 0.2885                 6.6764

                    19                     20                     21
                     A                      A                      A
 Frequencies --   258.9493               271.3933               290.7497
 Red. masses --     5.2200                 5.4377                 6.8020
 Frc consts  --     0.2062                 0.2360                 0.3388
 IR Inten    --    30.7769                21.5596                 2.8058

                    22                     23                     24
                     A                      A                      A
 Frequencies --   333.9496               346.4599               357.3185
 Red. masses --     9.0392                 7.1761                 3.8640
 Frc consts  --     0.5939                 0.5075                 0.2907
 IR Inten    --    76.4192                24.2958                41.8797

                    25                     26                     27
                     A                      A                      A
 Frequencies --   389.2947               404.6889               440.0651
 Red. masses --     8.6291                 6.3907                 6.1289
 Frc consts  --     0.7705                 0.6166                 0.6993
 IR Inten    --   114.7076                 6.2431                29.2606

                    28                     29                     30
                     A                      A                      A
 Frequencies --   453.5678               464.1397               472.7926
 Red. masses --     7.2686                 5.2940                 6.9330
 Frc consts  --     0.8810                 0.6719                 0.9131
 IR Inten    --   139.9822                 2.3019               126.2383

                    31                     32                     33
                     A                      A                      A
 Frequencies --   474.4081               486.6787               498.5907
 Red. masses --     8.3077                 4.1515                11.3599
 Frc consts  --     1.1016                 0.5793                 1.6638
 IR Inten    --   220.8333               106.7088                15.0822

                    34                     35                     36
                     A                      A                      A
 Frequencies --   512.6225               538.0298               554.5082
 Red. masses --     3.7176                10.1021                 7.0208
 Frc consts  --     0.5756                 1.7230                 1.2719
 IR Inten    --     6.4660                96.6674               311.2853

                    37                     38                     39
                     A                      A                      A
 Frequencies --   574.4218               581.1459               583.9248
 Red. masses --     5.0022                 4.3636                 4.9998
 Frc consts  --     0.9725                 0.8683                 1.0044
 IR Inten    --     3.3950                32.0334               169.0414

                    40                     41                     42
                     A                      A                      A
 Frequencies --   599.0197               612.3350               625.4124
 Red. masses --     6.8395                 7.3458                 4.2140
 Frc consts  --     1.4460                 1.6228                 0.9711
 IR Inten    --   279.1097                11.2441                22.0645

                    43                     44                     45
                     A                      A                      A
 Frequencies --   637.7194               637.9832               649.6121
 Red. masses --     6.5168                 1.5495                 3.2045
 Frc consts  --     1.5615                 0.3716                 0.7968
 IR Inten    --    28.6688                23.1744                 1.1620

                    46                     47                     48
                     A                      A                      A
 Frequencies --   661.7385               669.2870               681.5730
 Red. masses --     4.8485                 1.5826                 2.7869
 Frc consts  --     1.2509                 0.4177                 0.7628
 IR Inten    --    16.8412                 2.1495                11.5340

                    49                     50                     51
                     A                      A                      A
 Frequencies --   711.5123               713.0720               724.4051
 Red. masses --     4.6893                 3.7359                 7.1507
 Frc consts  --     1.3987                 1.1192                 2.2109
 IR Inten    --    39.5741                20.9312                 6.7924

                    52                     53                     54
                     A                      A                      A
 Frequencies --   731.6458               735.5899               766.2865
 Red. masses --     1.8847                 3.4066                 4.3880
 Frc consts  --     0.5944                 1.0860                 1.5181
 IR Inten    --    54.6136                23.6812                 4.8318

                    55                     56                     57
                     A                      A                      A
 Frequencies --   785.1145               796.6020               820.6061
 Red. masses --     3.3554                 1.4734                 1.5362
 Frc consts  --     1.2186                 0.5509                 0.6095
 IR Inten    --    70.5210                28.9748                 6.9072

                    58                     59                     60
                     A                      A                      A
 Frequencies --   831.2329               834.3550               837.2711
 Red. masses --     1.9674                 9.6766                 6.3339
 Frc consts  --     0.8009                 3.9689                 2.6161
 IR Inten    --    28.3220                39.5505                35.4512

                    61                     62                     63
                     A                      A                      A
 Frequencies --   842.5131               853.1841               867.5183
 Red. masses --    11.7158                 4.2948                 4.6659
 Frc consts  --     4.8998                 1.8420                 2.0689
 IR Inten    --    78.9005               167.4242                45.0451

                    64                     65                     66
                     A                      A                      A
 Frequencies --   883.0012               887.2594               888.1190
 Red. masses --     4.5265                 4.2678                 1.4663
 Frc consts  --     2.0794                 1.9795                 0.6814
 IR Inten    --   504.2674               118.1964                24.5304

                    67                     68                     69
                     A                      A                      A
 Frequencies --   894.5350               901.0755               907.1123
 Red. masses --     2.3039                 3.9683                 2.1735
 Frc consts  --     1.0862                 1.8984                 1.0537
 IR Inten    --    17.8430               556.7846                17.4169

                    70                     71                     72
                     A                      A                      A
 Frequencies --   914.8590               923.8819               935.4199
 Red. masses --     6.7609                 2.3370                 1.8057
 Frc consts  --     3.3340                 1.1753                 0.9309
 IR Inten    --    12.6688               145.6100               105.3105

                    73                     74                     75
                     A                      A                      A
 Frequencies --   941.9812               974.8449              1004.3152
 Red. masses --     1.5027                 1.3450                 1.1074
 Frc consts  --     0.7856                 0.7531                 0.6581
 IR Inten    --     0.8415                 2.9641                31.2330

                    76                     77                     78
                     A                      A                      A
 Frequencies --  1036.8970              1038.5757              1042.4147
 Red. masses --     3.2127                 2.7787                 3.2169
 Frc consts  --     2.0351                 1.7659                 2.0595
 IR Inten    --    19.6381                16.8941                19.1994

                    79                     80                     81
                     A                      A                      A
 Frequencies --  1049.5866              1109.9334              1138.9305
 Red. masses --     3.2014                 1.8437                 3.3426
 Frc consts  --     2.0779                 1.3383                 2.5546
 IR Inten    --     8.7910                80.5052                14.2779

                    82                     83                     84
                     A                      A                      A
 Frequencies --  1158.4942              1170.0691              1181.5700
 Red. masses --     2.5744                 1.1476                 1.4837
 Frc consts  --     2.0357                 0.9256                 1.2204
 IR Inten    --    61.2623                 0.3750                 6.8535

                    85                     86                     87
                     A                      A                      A
 Frequencies --  1190.3171              1205.9891              1233.8248
 Red. masses --     2.4692                 1.6978                 2.3245
 Frc consts  --     2.0613                 1.4548                 2.0849
 IR Inten    --   148.1451                 0.9637                 8.4740

                    88                     89                     90
                     A                      A                      A
 Frequencies --  1247.8785              1259.5354              1265.9894
 Red. masses --     3.3809                 2.7957                 2.6442
 Frc consts  --     3.1019                 2.6131                 2.4969
 IR Inten    --    34.9683                14.6885                 3.4227

                    91                     92                     93
                     A                      A                      A
 Frequencies --  1285.2165              1304.5613              1315.2507
 Red. masses --     1.5636                 2.6943                 1.4904
 Frc consts  --     1.5217                 2.7016                 1.5190
 IR Inten    --    22.1019                98.3405                51.6349

                    94                     95                     96
                     A                      A                      A
 Frequencies --  1325.6798              1328.3140              1334.5149
 Red. masses --     1.9102                 2.9043                 4.1723
 Frc consts  --     1.9779                 3.0193                 4.3780
 IR Inten    --   109.5659                 8.3769               155.4333

                    97                     98                     99
                     A                      A                      A
 Frequencies --  1342.9703              1350.7701              1368.0047
 Red. masses --     2.7547                 3.9825                 4.2710
 Frc consts  --     2.9272                 4.2813                 4.7093
 IR Inten    --   238.3809                15.0812                50.7960

                   100                    101                    102
                     A                      A                      A
 Frequencies --  1382.8653              1391.9514              1417.2896
 Red. masses --     4.1379                 3.3890                 2.9841
 Frc consts  --     4.6622                 3.8687                 3.5317
 IR Inten    --    26.3584               179.2125                39.2331

                   103                    104                    105
                     A                      A                      A
 Frequencies --  1423.7095              1430.6279              1449.7136
 Red. masses --     5.1859                 3.9331                 4.2060
 Frc consts  --     6.1932                 4.7428                 5.2082
 IR Inten    --    25.7815               230.1572                17.8485

                   106                    107                    108
                     A                      A                      A
 Frequencies --  1459.3117              1476.9988              1486.0836
 Red. masses --     3.3888                 5.5553                 3.2872
 Frc consts  --     4.2520                 7.1404                 4.2773
 IR Inten    --    18.0881                80.3410                19.2841

                   109                    110                    111
                     A                      A                      A
 Frequencies --  1500.6415              1514.0357              1530.9461
 Red. masses --     5.2782                 9.2401                 3.7307
 Frc consts  --     7.0031                12.4795                 5.1518
 IR Inten    --    65.0413                23.1332               684.3261

                   112                    113                    114
                     A                      A                      A
 Frequencies --  1540.5820              1553.1578              1587.5776
 Red. masses --     6.0435                 6.6157                 7.1331
 Frc consts  --     8.4510                 9.4027                10.5924
 IR Inten    --    52.8654                96.8247                15.5946

                   115                    116                    117
                     A                      A                      A
 Frequencies --  1595.0843              1606.3203              1615.5916
 Red. masses --     4.1742                 5.9665                 7.6534
 Frc consts  --     6.2573                 9.0706                11.7698
 IR Inten    --   256.2618                21.9981                15.8282

                   118                    119                    120
                     A                      A                      A
 Frequencies --  1630.4670              1642.0002              3146.0473
 Red. masses --     7.8068                 5.2212                 1.0886
 Frc consts  --    12.2278                 8.2940                 6.3483
 IR Inten    --    40.0985                 9.1223                19.0532

                   121                    122                    123
                     A                      A                      A
 Frequencies --  3163.3953              3169.7421              3183.1897
 Red. masses --     1.0869                 1.0856                 1.0925
 Frc consts  --     6.4081                 6.4265                 6.5220
 IR Inten    --     5.4333                 3.0081               110.6648

                   124                    125                    126
                     A                      A                      A
 Frequencies --  3194.2086              3195.8216              3201.2202
 Red. masses --     1.0905                 1.0925                 1.0913
 Frc consts  --     6.5557                 6.5742                 6.5893
 IR Inten    --     2.7991                 1.0689                17.7455

                   127                    128                    129
                     A                      A                      A
 Frequencies --  3201.3758              3207.5117              3263.7650
 Red. masses --     1.0953                 1.0858                 1.0941
 Frc consts  --     6.6136                 6.5814                 6.8666
 IR Inten    --    40.8747                 6.6115                 1.9013

                   130                    131                    132
                     A                      A                      A
 Frequencies --  3266.0558              3269.6220              3590.3684
 Red. masses --     1.0949                 1.0942                 1.0822
 Frc consts  --     6.8811                 6.8922                 8.2192
 IR Inten    --     2.7657                 3.4277               167.6240

 - Thermochemistry -
 -------------------
 Temperature   298.150 Kelvin.  Pressure   1.00000 Atm.
 Atom     1 has atomic number  6 and mass  12.00000

 Molecular mass:   459.06124 amu.
 Principal axes and moments of inertia in atomic units:
                           1         2         3
     Eigenvalues --  ******************************
           X            0.99995  -0.00972   0.00035
           Y            0.00972   0.99995   0.00119
           Z           -0.00036  -0.00119   1.00000
 This molecule is an asymmetric top.
 Rotational symmetry number  1.
 Warning -- assumption of classical behavior for rotation
           may cause significant error
 Rotational temperatures (Kelvin)      0.00742     0.00237     0.00180
 Rotational constants (GHZ):           0.15471     0.04935     0.03748
 Zero-point vibrational energy     847317.1 (Joules/Mol)
                                  202.51365 (Kcal/Mol)
 Warning -- explicit consideration of  41 degrees of freedom as
           vibrations may cause significant error
 Vibrational temperatures:     25.97    34.78    36.24    42.05    67.64
          (Kelvin)             87.95   118.92   130.28   162.72   181.21
                              189.72   215.62   240.30   254.36   270.59
                              308.37   315.22   365.52   372.57   390.47
                              418.32   480.48   498.48   514.10   560.11
                              582.26   633.15   652.58   667.79   680.24
                              682.57   700.22   717.36   737.55   774.10
                              797.81   826.46   836.14   840.14   861.85
                              881.01   899.83   917.53   917.91   934.65
                              952.09   962.95   980.63  1023.71  1025.95
                             1042.26  1052.67  1058.35  1102.51  1129.60
                             1146.13  1180.67  1195.96  1200.45  1204.64
                             1212.19  1227.54  1248.16  1270.44  1276.57
                             1277.80  1287.03  1296.45  1305.13  1316.28
                             1329.26  1345.86  1355.30  1402.58  1444.98
                             1491.86  1494.28  1499.80  1510.12  1596.94
                             1638.66  1666.81  1683.47  1700.01  1712.60
                             1735.15  1775.20  1795.42  1812.19  1821.47
                             1849.14  1876.97  1892.35  1907.36  1911.15
                             1920.07  1932.23  1943.45  1968.25  1989.63
                             2002.71  2039.16  2048.40  2058.35  2085.81
                             2099.62  2125.07  2138.14  2159.09  2178.36
                             2202.69  2216.55  2234.64  2284.17  2294.97
                             2311.13  2324.47  2345.88  2362.47  4526.45
                             4551.41  4560.55  4579.89  4595.75  4598.07
                             4605.84  4606.06  4614.89  4695.82  4699.12
                             4704.25  5165.73

 Zero-point correction=                           0.322726 (Hartree/Particle)
 Thermal correction to Energy=                    0.347883
 Thermal correction to Enthalpy=                  0.348827
 Thermal correction to Gibbs Free Energy=         0.264616
 Sum of electronic and zero-point Energies=          -2068.237200
 Sum of electronic and thermal Energies=             -2068.212043
 Sum of electronic and thermal Enthalpies=           -2068.211099
 Sum of electronic and thermal Free Energies=        -2068.295310

                     E (Thermal)             CV                S
                      KCal/Mol        Cal/Mol-Kelvin    Cal/Mol-Kelvin
 Total                  218.300             99.886            177.237
 Electronic               0.000              0.000              0.000
 Translational            0.889              2.981             44.261
 Rotational               0.889              2.981             38.260
 Vibrational            216.523             93.925             94.716
 Vibration     1          0.593              1.986              6.838
 Vibration     2          0.593              1.985              6.258
 Vibration     3          0.593              1.985              6.176
 Vibration     4          0.593              1.984              5.881
 Vibration     5          0.595              1.979              4.939
 Vibration     6          0.597              1.973              4.420
 Vibration     7          0.600              1.961              3.827
 Vibration     8          0.602              1.956              3.648
 Vibration     9          0.607              1.939              3.215
 Vibration    10          0.611              1.927              3.007
 Vibration    11          0.612              1.921              2.919
 Vibration    12          0.618              1.903              2.674
 Vibration    13          0.624              1.883              2.469
 Vibration    14          0.628              1.871              2.362
 Vibration    15          0.633              1.856              2.247
 Vibration    16          0.644              1.819              2.006
 Vibration    17          0.647              1.812              1.967
 Vibration    18          0.665              1.756              1.702
 Vibration    19          0.668              1.748              1.669
 Vibration    20          0.675              1.726              1.587
 Vibration    21          0.687              1.691              1.470
 Vibration    22          0.715              1.608              1.241
 Vibration    23          0.724              1.582              1.182
 Vibration    24          0.732              1.560              1.134
 Vibration    25          0.757              1.493              1.003
 Vibration    26          0.770              1.460              0.946
 Vibration    27          0.800              1.383              0.826
 Vibration    28          0.812              1.353              0.785
 Vibration    29          0.822              1.330              0.754
 Vibration    30          0.830              1.310              0.730
 Vibration    31          0.831              1.307              0.725
 Vibration    32          0.843              1.280              0.692
 Vibration    33          0.854              1.253              0.662
 Vibration    34          0.868              1.222              0.627
 Vibration    35          0.893              1.166              0.570
 Vibration    36          0.910              1.130              0.535
 Vibration    37          0.931              1.087              0.496
 Vibration    38          0.938              1.072              0.483
 Vibration    39          0.941              1.066              0.478
 Vibration    40          0.957              1.034              0.451
 Vibration    41          0.972              1.006              0.429

 1\1\GINC-N094\Freq\RB3LYP\6-31++G(d,p)\C26H13N5S2\SHUO\30-Dec-2013\0\\
 #N Geom=AllCheck Guess=TCheck SCRF=Check Test GenChk RB3LYP/6-31++G(d,
 p) Freq\\Geom opt of No.64 candidate from the CEPDB database with SMIL
 E code of c1scc2c1c1cc([nH]c1c1cnc3ccc4ccccc4c3c21)-c1cncc2nsnc12, HPC
 , 20131227, Shuo Dai, Gaussian09\\0,1\C,2.9261053778,-1.3852021576,-0.
 2742889693\S,2.5937729189,-3.0818854536,-0.2858715728\C,0.8951400371,-
 2.825212795,-0.1755309411\C,0.5853900413,-1.4828161839,-0.1273868619\C
 ,1.767383129,-0.6442516551,-0.1865274087\C,1.599350946,0.7903240412,-0

 Normal termination of Gaussian 09 at Mon Dec 30 09:23:33 2013.
