 Gaussian 09, Revision C.01,
 Gaussian 09:  EM64L-G09RevC.01 23-Sep-2011

 --------------------------------------------
 #B3LYP/6-31++G(d,p) opt scf=direct freq test
 --------------------------------------------

 Geom opt of No.6 candidate from the CEPDB database with SMILE code of
 [SiH2]1C=c2c3cc(cnc3c3c4cscc4c4ccccc4c3c2=C1)-c1cncc2nsnc12, HPC, 2013
 1227, Shuo Dai, Gaussian09
 ----------------------------------------------------------------------
 Charge =  0 Multiplicity = 1

 SCF Done:  E(RB3LYP) =  -2303.47976648     A.U. after   29 cycles
 SCF Done:  E(RB3LYP) =  -2303.55589741     A.U. after   25 cycles
 SCF Done:  E(RB3LYP) =  -2303.63062418     A.U. after   26 cycles
 SCF Done:  E(RB3LYP) =  -2303.68118183     A.U. after   24 cycles
 SCF Done:  E(RB3LYP) =  -2303.73007268     A.U. after   23 cycles
 SCF Done:  E(RB3LYP) =  -2303.74457206     A.U. after   26 cycles
 SCF Done:  E(RB3LYP) =  -2303.75843522     A.U. after   24 cycles
 SCF Done:  E(RB3LYP) =  -2303.77145985     A.U. after   24 cycles
 SCF Done:  E(RB3LYP) =  -2303.78373676     A.U. after   24 cycles
 SCF Done:  E(RB3LYP) =  -2303.78867328     A.U. after   24 cycles
 SCF Done:  E(RB3LYP) =  -2303.90936876     A.U. after   14 cycles
 SCF Done:  E(RB3LYP) =  -2303.90938364     A.U. after   13 cycles
 SCF Done:  E(RB3LYP) =  -2303.90939039     A.U. after   13 cycles
 SCF Done:  E(RB3LYP) =  -2303.90939494     A.U. after   13 cycles
 SCF Done:  E(RB3LYP) =  -2303.90939834     A.U. after   13 cycles
 SCF Done:  E(RB3LYP) =  -2303.90940060     A.U. after   13 cycles
 SCF Done:  E(RB3LYP) =  -2303.90940133     A.U. after   12 cycles
 SCF Done:  E(RB3LYP) =  -2303.90940155     A.U. after   10 cycles
 SCF Done:  E(RB3LYP) =  -2303.90940153     A.U. after   10 cycles
 Optimization completed.
    -- Stationary point found.
 Normal termination of Gaussian 09 at Mon Dec 30 03:56:30 2013.

 ----------------------------------------------------------------------
 #N Geom=AllCheck Guess=TCheck SCRF=Check Test GenChk RB3LYP/6-31++G(d,
 p) Freq
 ----------------------------------------------------------------------

 Geom opt of No.6 candidate from the CEPDB database with SMILE code of
 [SiH2]1C=c2c3cc(cnc3c3c4cscc4c4ccccc4c3c2=C1)-c1cncc2nsnc12, HPC, 2013
 1227, Shuo Dai, Gaussian09
 ----------------------------------------------------------------------
 Charge =  0 Multiplicity = 1

                         Standard orientation:
 ---------------------------------------------------------------------
 Center     Atomic      Atomic             Coordinates (Angstroms)
 Number     Number       Type             X           Y           Z
 ---------------------------------------------------------------------
      1         14           0       -0.316652   -4.226563   -1.629801
      2          1           0       -0.042766   -5.679317   -1.542288
      3          1           0       -1.053580   -3.793963   -2.834388
      4          6           0        0.893617   -3.086068   -0.774880
      5          6           0        0.460024   -1.657885   -0.918481
      6          6           0        0.866910   -0.433705   -1.378070
      7          6           0        2.001654    0.063172   -2.185980
      8          6           0        2.469779    1.266443   -1.680786
      9          6           0        1.429843    2.260150   -2.133387
     10          7           0        0.233729    1.937467   -1.754595
     11          6           0       -0.071258    0.672010   -1.194081
     12          6           0       -1.333709    0.485175   -0.559868
     13          6           0       -2.300732    1.575976   -0.353154
     14          6           0       -2.189589    2.908346   -0.712716
     15         16           0       -3.567253    3.830551   -0.255338
     16          6           0       -4.335953    2.456725    0.438677
     17          6           0       -3.560448    1.323258    0.321785
     18          6           0       -3.918434   -0.008336    0.794541
     19          6           0       -5.148369   -0.266814    1.430396
     20          6           0       -5.486773   -1.543154    1.856383
     21          6           0       -4.591919   -2.600604    1.644016
     22          6           0       -3.373798   -2.361838    1.021759
     23          6           0       -3.002045   -1.068406    0.591568
     24          6           0       -1.708875   -0.825656   -0.069542
     25          6           0       -0.769123   -1.838873   -0.259657
     26          6           0       -0.508941   -3.305542   -0.008326
     27          6           0        3.065558    1.436337   -0.373114
     28          6           0        3.100015    2.676308    0.271852
     29          7           0        3.711002    2.959036    1.455538
     30          6           0        4.366330    2.012465    2.092022
     31          6           0        4.456967    0.695166    1.553404
     32          7           0        5.110858   -0.341590    2.095281
     33         16           0        4.895904   -1.600027    1.064133
     34          7           0        3.963484   -0.879819   -0.085682
     35          6           0        3.794363    0.388934    0.303387
     36          1           0        1.860531   -3.385128   -0.381289
     37          1           0        1.735445    0.099060   -3.250544
     38          1           0        1.588334    3.217065   -2.631508
     39          1           0       -1.372561    3.380301   -1.229223
     40          1           0       -5.311165    2.559272    0.891166
     41          1           0       -5.848711    0.546641    1.588140
     42          1           0       -6.440471   -1.718943    2.345185
     43          1           0       -4.846922   -3.607179    1.962244
     44          1           0       -2.705084   -3.195235    0.856838
     45          1           0       -0.585765   -3.781966    0.965934
     46          1           0        2.593172    3.521853   -0.183958
     47          1           0        4.840191    2.253873    3.039878
 ---------------------------------------------------------------------

 SCF Done:  E(RB3LYP) =  -2303.90940153     A.U. after    2 cycles

 The electronic state is 1-A.
 Alpha  occ. eigenvalues --  -88.99524 -88.92051 -66.16128 -14.39438 -14.39110
 Alpha  occ. eigenvalues --  -14.36424 -14.35883 -10.26583 -10.26313 -10.26045
 Alpha  occ. eigenvalues --  -10.25055 -10.24271 -10.24189 -10.23407 -10.22689
 Alpha  occ. eigenvalues --  -10.22438 -10.22410 -10.21981 -10.21793 -10.21782
 Alpha  occ. eigenvalues --  -10.21583 -10.21417 -10.21360 -10.21345 -10.21302
 Alpha  occ. eigenvalues --  -10.21297 -10.21181 -10.21026 -10.20833 -10.20152
 Alpha  occ. eigenvalues --  -10.20031 -10.20007 -10.19947  -8.04827  -7.97974
 Alpha  occ. eigenvalues --   -6.01382  -6.00799  -6.00594  -5.94369  -5.93994
 Alpha  occ. eigenvalues --   -5.93752  -5.30922  -3.66813  -3.66787  -3.66706
 Alpha  occ. eigenvalues --   -1.03963  -0.96836  -0.95961  -0.91231  -0.90942
 Alpha  occ. eigenvalues --   -0.89613  -0.86653  -0.84203  -0.83300  -0.80818
 Alpha  occ. eigenvalues --   -0.79609  -0.78224  -0.77296  -0.75052  -0.73482
 Alpha  occ. eigenvalues --   -0.71505  -0.70491  -0.68641  -0.66347  -0.65025
 Alpha  occ. eigenvalues --   -0.64394  -0.62713  -0.62193  -0.61285  -0.59456
 Alpha  occ. eigenvalues --   -0.58684  -0.56598  -0.55006  -0.54424  -0.53766
 Alpha  occ. eigenvalues --   -0.53446  -0.52687  -0.51669  -0.51068  -0.49521
 Alpha  occ. eigenvalues --   -0.49147  -0.48298  -0.47519  -0.47262  -0.46674
 Alpha  occ. eigenvalues --   -0.44772  -0.44580  -0.43550  -0.43202  -0.43012
 Alpha  occ. eigenvalues --   -0.42418  -0.42043  -0.41776  -0.40340  -0.40063
 Alpha  occ. eigenvalues --   -0.39900  -0.39664  -0.39422  -0.38519  -0.37563
 Alpha  occ. eigenvalues --   -0.37492  -0.36822  -0.35835  -0.35509  -0.35228
 Alpha  occ. eigenvalues --   -0.34832  -0.34376  -0.34080  -0.32274  -0.31469
 Alpha  occ. eigenvalues --   -0.30196  -0.29938  -0.29183  -0.28495  -0.27891
 Alpha  occ. eigenvalues --   -0.27754  -0.27038  -0.26494  -0.23446  -0.21637
 Alpha  occ. eigenvalues --   -0.21450  -0.20891
 Alpha virt. eigenvalues --   -0.12469  -0.09641  -0.06345  -0.05234  -0.03938
 Alpha virt. eigenvalues --   -0.02803  -0.02140  -0.01772  -0.00947  -0.00803
 Alpha virt. eigenvalues --   -0.00380  -0.00131   0.00016   0.00520   0.00606

 Mulliken atomic charges:
              1
     1  Si   0.651372
     2  H   -0.071085
     3  H   -0.062684
     4  C   -0.845208
     5  C    0.352295
     6  C    1.170506
     7  C   -1.098829
     8  C    0.186027
     9  C   -0.308466
    10  N    0.088740
    11  C   -0.396451
    12  C    0.137973
    13  C    0.070221
    14  C    0.077621
    15  S    0.067824
    16  C   -0.131430
    17  C   -0.096912
    18  C    0.378231
    19  C   -0.660778
    20  C   -0.186427
    21  C   -0.564269
    22  C   -0.740846
    23  C    0.569068
    24  C    0.229294
    25  C    0.144952
    26  C   -0.416473
    27  C   -0.110905
    28  C   -0.124869
    29  N   -0.108325
    30  C   -0.390870
    31  C    0.618729
    32  N   -0.446534
    33  S    0.868934
    34  N   -0.381328
    35  C   -0.139275
    36  H    0.157749
    37  H    0.185517
    38  H    0.136658
    39  H    0.223663
    40  H    0.174693
    41  H    0.013117
    42  H    0.114310
    43  H    0.136446
    44  H   -0.054439
    45  H    0.198180
    46  H    0.201754
    47  H    0.182530
 Sum of Mulliken atomic charges =  -0.00000

 Dipole moment (field-independent basis, Debye):
    X=             -0.8804    Y=             -3.3959    Z=             -0.7926  Tot=              3.5966
 Quadrupole moment (field-independent basis, Debye-Ang):
   XX=           -206.3110   YY=           -196.7522   ZZ=           -211.6452
   XY=             -2.5001   XZ=             -9.0086   YZ=             -4.4850

  Exact polarizability: 521.774   5.565 506.382  -6.017  -0.035 311.825
 Approx polarizability: 770.669   4.472 970.379  -9.837  17.743 627.277

                     1                      2                      3
                     A                      A                      A
 Frequencies --    14.2383                18.6733                28.6201
 Red. masses --    10.7892                 7.7864                 9.3270
 Frc consts  --     0.0013                 0.0016                 0.0045
 IR Inten    --     0.0710                 0.0320                 0.0131

                     4                      5                      6
                     A                      A                      A
 Frequencies --    34.5850                55.0810                86.5183
 Red. masses --     8.3463                 4.6899                 5.7261
 Frc consts  --     0.0059                 0.0084                 0.0253
 IR Inten    --     0.1484                 0.3829                 1.4545

                     7                      8                      9
                     A                      A                      A
 Frequencies --    96.0480               116.2974               123.3309
 Red. masses --     5.5071                 6.7053                 7.5107
 Frc consts  --     0.0299                 0.0534                 0.0673
 IR Inten    --     0.1633                 0.5835                 1.4202

                    10                     11                     12
                     A                      A                      A
 Frequencies --   131.1468               138.8552               181.9730
 Red. masses --     7.7862                 4.6776                 4.9301
 Frc consts  --     0.0789                 0.0531                 0.0962
 IR Inten    --     1.0824                 0.6248                 1.8201

                    13                     14                     15
                     A                      A                      A
 Frequencies --   193.5551               204.5976               227.9052
 Red. masses --     7.0693                 7.5418                 5.5530
 Frc consts  --     0.1560                 0.1860                 0.1699
 IR Inten    --     2.1144                 0.2641                 0.0572

                    16                     17                     18
                     A                      A                      A
 Frequencies --   247.2714               251.9860               272.5309
 Red. masses --     4.4855                 4.7233                 7.0424
 Frc consts  --     0.1616                 0.1767                 0.3082
 IR Inten    --     0.3182                 0.8702                 1.7618

                    19                     20                     21
                     A                      A                      A
 Frequencies --   291.8274               305.5661               332.9914
 Red. masses --     6.0797                 5.9929                 5.3518
 Frc consts  --     0.3051                 0.3297                 0.3496
 IR Inten    --     0.6336                 0.4935                 0.1668

                    22                     23                     24
                     A                      A                      A
 Frequencies --   362.0359               371.8224               397.1994
 Red. masses --     7.2641                 4.9904                 4.8941
 Frc consts  --     0.5610                 0.4065                 0.4549
 IR Inten    --     1.2367                 1.0082                 3.4159

                    25                     26                     27
                     A                      A                      A
 Frequencies --   404.2447               432.4129               448.7063
 Red. masses --     6.7693                 4.5985                 5.1309
 Frc consts  --     0.6518                 0.5066                 0.6087
 IR Inten    --     1.5073                 4.8749                 0.7784

                    28                     29                     30
                     A                      A                      A
 Frequencies --   455.3753               466.9679               476.6344
 Red. masses --     4.7607                 4.6596                 3.8150
 Frc consts  --     0.5816                 0.5987                 0.5106
 IR Inten    --     0.6126                 1.7720                 0.9142

                    31                     32                     33
                     A                      A                      A
 Frequencies --   479.5081               501.3125               515.2785
 Red. masses --     4.5412                 5.8460                 5.4836
 Frc consts  --     0.6152                 0.8656                 0.8578
 IR Inten    --    11.0799                 7.3840                 8.1341

                    34                     35                     36
                     A                      A                      A
 Frequencies --   525.3606               551.8428               552.1666
 Red. masses --     2.8594                 4.1860                 3.0503
 Frc consts  --     0.4650                 0.7511                 0.5479
 IR Inten    --     9.4803                10.9519                21.1108

                    37                     38                     39
                     A                      A                      A
 Frequencies --   563.9666               581.3588               594.5180
 Red. masses --     3.8734                 4.3281                 4.8349
 Frc consts  --     0.7259                 0.8619                 1.0068
 IR Inten    --     1.4209                13.6465                 0.9285

                    40                     41                     42
                     A                      A                      A
 Frequencies --   604.5333               613.9957               623.2266
 Red. masses --     4.1675                 4.3648                 6.1588
 Frc consts  --     0.8974                 0.9695                 1.4094
 IR Inten    --     0.5469                 1.2569                 4.5159

                    43                     44                     45
                     A                      A                      A
 Frequencies --   630.0249               635.3622               643.9336
 Red. masses --     3.2210                 5.8096                 3.9290
 Frc consts  --     0.7533                 1.3818                 0.9599
 IR Inten    --     7.4531                10.2313                26.6644

                    46                     47                     48
                     A                      A                      A
 Frequencies --   655.8515               667.5330               670.8680
 Red. masses --     1.4077                 1.7254                 4.7364
 Frc consts  --     0.3568                 0.4530                 1.2559
 IR Inten    --    52.9548                 5.1407                 3.9583

                    49                     50                     51
                     A                      A                      A
 Frequencies --   689.9025               706.8756               718.6702
 Red. masses --     3.3155                 3.3539                 4.5793
 Frc consts  --     0.9298                 0.9874                 1.3935
 IR Inten    --    22.3076                 6.9474                20.3468

                    52                     53                     54
                     A                      A                      A
 Frequencies --   726.2555               747.1118               761.4107
 Red. masses --     4.7475                 7.1182                 4.3840
 Frc consts  --     1.4754                 2.3409                 1.4975
 IR Inten    --    10.8188                 6.1243                55.3425

                    55                     56                     57
                     A                      A                      A
 Frequencies --   766.9008               779.7865               787.1126
 Red. masses --     1.8283                 2.2159                 4.8195
 Frc consts  --     0.6336                 0.7939                 1.7593
 IR Inten    --    24.9589                24.8524                 6.3358

                    58                     59                     60
                     A                      A                      A
 Frequencies --   801.5475               802.8056               814.9691
 Red. masses --     3.6083                 4.9127                 5.9272
 Frc consts  --     1.3659                 1.8655                 2.3194
 IR Inten    --    13.5631                 1.2323                 2.8291

                    61                     62                     63
                     A                      A                      A
 Frequencies --   815.8271               817.1648               838.6382
 Red. masses --     1.5572                 8.9489                12.8787
 Frc consts  --     0.6107                 3.5208                 5.3367
 IR Inten    --    23.2460                40.5879                29.2406

                    64                     65                     66
                     A                      A                      A
 Frequencies --   841.8232               859.1497               872.3779
 Red. masses --     1.6858                 2.0141                 2.7448
 Frc consts  --     0.7039                 0.8759                 1.2307
 IR Inten    --     2.1629                29.8149                70.5192

                    67                     68                     69
                     A                      A                      A
 Frequencies --   875.5117               884.4755               890.5733
 Red. masses --     1.5762                 2.1563                 1.2087
 Frc consts  --     0.7118                 0.9939                 0.5648
 IR Inten    --     1.7164               102.4065                93.7230

                    70                     71                     72
                     A                      A                      A
 Frequencies --   893.7929               898.5596               902.5890
 Red. masses --     3.7804                 5.3718                 3.4321
 Frc consts  --     1.7794                 2.5554                 1.6473
 IR Inten    --    13.9410                16.9908                20.3176

                    73                     74                     75
                     A                      A                      A
 Frequencies --   911.6981               945.8072               949.8681
 Red. masses --     2.0066                 1.5880                 2.4379
 Frc consts  --     0.9827                 0.8370                 1.2960
 IR Inten    --    36.4937                 2.5222                38.8030

                    76                     77                     78
                     A                      A                      A
 Frequencies --   956.0621               958.6358               980.5347
 Red. masses --     1.4957                 1.5368                 5.3214
 Frc consts  --     0.8055                 0.8321                 3.0144
 IR Inten    --    73.9274                17.1835                11.1145

                    79                     80                     81
                     A                      A                      A
 Frequencies --   985.9122               990.2524              1023.3336
 Red. masses --     3.6266                 1.3099                 2.9901
 Frc consts  --     2.0770                 0.7568                 1.8449
 IR Inten    --     8.2509                 0.4229                 7.1226

                    82                     83                     84
                     A                      A                      A
 Frequencies --  1045.2922              1076.3305              1095.5109
 Red. masses --     3.2150                 2.1317                 2.9280
 Frc consts  --     2.0697                 1.4550                 2.0704
 IR Inten    --    11.3349                12.1362                20.5759

                    85                     86                     87
                     A                      A                      A
 Frequencies --  1131.1053              1136.0198              1143.8092
 Red. masses --     2.6083                 2.0675                 2.7132
 Frc consts  --     1.9662                 1.5721                 2.0914
 IR Inten    --    14.3404                 9.4477                29.4041

                    88                     89                     90
                     A                      A                      A
 Frequencies --  1151.8651              1154.2972              1174.7129
 Red. masses --     3.1644                 2.0447                 1.6976
 Frc consts  --     2.4737                 1.6052                 1.3802
 IR Inten    --     8.4001                37.3159                21.4831

                    91                     92                     93
                     A                      A                      A
 Frequencies --  1192.4914              1199.5612              1216.9527
 Red. masses --     1.2364                 1.7773                 2.4136
 Frc consts  --     1.0359                 1.5068                 2.1060
 IR Inten    --     3.3248                 5.4100                14.9887

                    94                     95                     96
                     A                      A                      A
 Frequencies --  1255.5064              1264.3136              1281.2721
 Red. masses --     1.9422                 2.0588                 3.6358
 Frc consts  --     1.8038                 1.9390                 3.5166
 IR Inten    --     3.5556                15.4505                12.1617

                    97                     98                     99
                     A                      A                      A
 Frequencies --  1297.6483              1308.7908              1333.4574
 Red. masses --     1.9633                 2.8060                 5.2297
 Frc consts  --     1.9478                 2.8319                 5.4788
 IR Inten    --    13.8981                10.1523                13.0690

                   100                    101                    102
                     A                      A                      A
 Frequencies --  1334.5276              1340.7836              1357.3050
 Red. masses --     2.5069                 1.5255                 9.0990
 Frc consts  --     2.6305                 1.6157                 9.8764
 IR Inten    --     9.5194                33.4041                 9.9518

                   103                    104                    105
                     A                      A                      A
 Frequencies --  1365.0670              1369.1215              1390.8086
 Red. masses --     3.5032                 4.6689                 6.4075
 Frc consts  --     3.8461                 5.1564                 7.3026
 IR Inten    --    15.5722                 3.9708                41.7570

                   106                    107                    108
                     A                      A                      A
 Frequencies --  1397.8995              1409.9851              1415.8403
 Red. masses --     3.6643                 3.0911                 3.1284
 Frc consts  --     4.2188                 3.6207                 3.6949
 IR Inten    --     5.1278                16.5608                 8.8070

                   109                    110                    111
                     A                      A                      A
 Frequencies --  1456.7878              1484.7732              1503.4415
 Red. masses --     5.5345                 7.2462                 3.3907
 Frc consts  --     6.9202                 9.4120                 4.5156
 IR Inten    --    11.4529                15.6720                 1.8647

                   112                    113                    114
                     A                      A                      A
 Frequencies --  1508.3522              1509.8993              1519.0714
 Red. masses --     6.7531                 2.8116                 4.7315
 Frc consts  --     9.0523                 3.7766                 6.4329
 IR Inten    --    16.7721                 9.5816                10.2857

                   115                    116                    117
                     A                      A                      A
 Frequencies --  1542.1626              1569.4906              1597.2477
 Red. masses --     8.1976                 5.8317                 5.9298
 Frc consts  --    11.4867                 8.4637                 8.9132
 IR Inten    --    12.7024                18.3409                16.0937

                   118                    119                    120
                     A                      A                      A
 Frequencies --  1597.9235              1614.4800              1652.1578
 Red. masses --    10.4193                 6.8231                 5.6979
 Frc consts  --    15.6748                10.4784                 9.1636
 IR Inten    --     3.8383                 2.0622                 2.2322

                   121                    122                    123
                     A                      A                      A
 Frequencies --  1660.8516              2246.1193              2283.8689
 Red. masses --    11.1492                 1.0302                 1.0552
 Frc consts  --    18.1200                 3.0623                 3.2429
 IR Inten    --    15.5576               226.6041                77.2117

                   124                    125                    126
                     A                      A                      A
 Frequencies --  3034.0033              3135.5663              3172.4970
 Red. masses --     1.0828                 1.0906                 1.0895
 Frc consts  --     5.8724                 6.3175                 6.4605
 IR Inten    --    16.3455                28.8434                 4.6662

                   127                    128                    129
                     A                      A                      A
 Frequencies --  3183.3022              3190.4125              3193.6220
 Red. masses --     1.0860                 1.0890                 1.0899
 Frc consts  --     6.4840                 6.5311                 6.5496
 IR Inten    --     0.3972                10.3317                 4.2643

                   130                    131                    132
                     A                      A                      A
 Frequencies --  3194.5419              3196.5749              3209.1774
 Red. masses --     1.0923                 1.0909                 1.0957
 Frc consts  --     6.5679                 6.5673                 6.6486
 IR Inten    --     6.7287                16.7181                28.6864

                   133                    134                    135
                     A                      A                      A
 Frequencies --  3251.4569              3271.3143              3323.0268
 Red. masses --     1.0901                 1.0930                 1.0929
 Frc consts  --     6.7903                 6.8915                 7.1104
 IR Inten    --     4.6845                 0.7101                10.4161

 - Thermochemistry -
 -------------------
 Temperature   298.150 Kelvin.  Pressure   1.00000 Atm.
 Atom     1 has atomic number 14 and mass  27.97693

 Molecular mass:   474.04292 amu.
 Principal axes and moments of inertia in atomic units:
                           1         2         3
     Eigenvalues --  ******************************
           X            0.99986   0.01499  -0.00748
           Y           -0.01499   0.99989  -0.00030
           Z            0.00748   0.00041   0.99997
 This molecule is an asymmetric top.
 Rotational symmetry number  1.
 Warning -- assumption of classical behavior for rotation
           may cause significant error
 Rotational temperatures (Kelvin)      0.00780     0.00417     0.00324
 Rotational constants (GHZ):           0.16242     0.08679     0.06756
 Zero-point vibrational energy     854839.3 (Joules/Mol)
                                  204.31150 (Kcal/Mol)
 Warning -- explicit consideration of  41 degrees of freedom as
           vibrations may cause significant error
 Vibrational temperatures:     20.49    26.87    41.18    49.76    79.25
          (Kelvin)            124.48   138.19   167.33   177.45   188.69
                              199.78   261.82   278.48   294.37   327.90
                              355.77   362.55   392.11   419.87   439.64
                              479.10   520.89   534.97   571.48   581.62
                              622.14   645.59   655.18   671.86   685.77
                              689.90   721.28   741.37   755.88   793.98
                              794.44   811.42   836.44   855.38   869.79
                              883.40   896.68   906.46   914.14   926.48
                              943.62   960.43   965.23   992.61  1017.04
                             1034.00  1044.92  1074.93  1095.50  1103.40
                             1121.94  1132.48  1153.25  1155.06  1172.56
                             1173.79  1175.72  1206.61  1211.19  1236.12
                             1255.16  1259.66  1272.56  1281.33  1285.97
                             1292.83  1298.62  1311.73  1360.80  1366.65
                             1375.56  1379.26  1410.77  1418.51  1424.75
                             1472.35  1503.94  1548.60  1576.19  1627.41
                             1634.48  1645.68  1657.27  1660.77  1690.15
                             1715.73  1725.90  1750.92  1806.39  1819.06
                             1843.46  1867.02  1883.06  1918.55  1920.09
                             1929.09  1952.86  1964.02  1969.86  2001.06
                             2011.26  2028.65  2037.08  2095.99  2136.25
                             2163.11  2170.18  2172.41  2185.60  2218.83
                             2258.14  2298.08  2299.05  2322.87  2377.08
                             2389.59  3231.66  3285.97  4365.25  4511.37
                             4564.51  4580.06  4590.29  4594.90  4596.23
                             4599.15  4617.28  4678.12  4706.69  4781.09

 Zero-point correction=                           0.325591 (Hartree/Particle)
 Thermal correction to Energy=                    0.350248
 Thermal correction to Enthalpy=                  0.351193
 Thermal correction to Gibbs Free Energy=         0.269440
 Sum of electronic and zero-point Energies=          -2303.583810
 Sum of electronic and thermal Energies=             -2303.559153
 Sum of electronic and thermal Enthalpies=           -2303.558209
 Sum of electronic and thermal Free Energies=        -2303.639961

                     E (Thermal)             CV                S
                      KCal/Mol        Cal/Mol-Kelvin    Cal/Mol-Kelvin
 Total                  219.784            101.598            172.062
 Electronic               0.000              0.000              0.000
 Translational            0.889              2.981             44.357
 Rotational               0.889              2.981             37.066
 Vibrational            218.007             95.637             90.640
 Vibration     1          0.593              1.986              7.309
 Vibration     2          0.593              1.986              6.771
 Vibration     3          0.593              1.984              5.923
 Vibration     4          0.594              1.983              5.547
 Vibration     5          0.596              1.976              4.626
 Vibration     6          0.601              1.959              3.737
 Vibration     7          0.603              1.952              3.533
 Vibration     8          0.608              1.936              3.161
 Vibration     9          0.610              1.930              3.048
 Vibration    10          0.612              1.922              2.929
 Vibration    11          0.614              1.914              2.820
 Vibration    12          0.630              1.864              2.308
 Vibration    13          0.635              1.849              2.194
 Vibration    14          0.640              1.833              2.091
 Vibration    15          0.651              1.798              1.895
 Vibration    16          0.661              1.767              1.750
 Vibration    17          0.664              1.759              1.717
 Vibration    18          0.676              1.724              1.580
 Vibration    19          0.687              1.689              1.463
 Vibration    20          0.696              1.663              1.386
 Vibration    21          0.715              1.610              1.246
 Vibration    22          0.736              1.550              1.113
 Vibration    23          0.744              1.530              1.072
 Vibration    24          0.764              1.476              0.973
 Vibration    25          0.769              1.461              0.947
 Vibration    26          0.793              1.400              0.851
 Vibration    27          0.808              1.364              0.800
 Vibration    28          0.814              1.349              0.780
 Vibration    29          0.824              1.323              0.746
 Vibration    30          0.833              1.302              0.719
 Vibration    31          0.836              1.296              0.711
 Vibration    32          0.857              1.247              0.655
 Vibration    33          0.870              1.216              0.621
 Vibration    34          0.880              1.194              0.598
 Vibration    35          0.907              1.136              0.540
 Vibration    36          0.908              1.135              0.540
 Vibration    37          0.920              1.109              0.516
 Vibration    38          0.938              1.072              0.483
 Vibration    39          0.952              1.043              0.459
 Vibration    40          0.963              1.022              0.442
 Vibration    41          0.973              1.002              0.426

 Normal termination of Gaussian 09 at Mon Dec 30 07:52:56 2013.
