 Gaussian 09, Revision C.01,
 Gaussian 09:  EM64L-G09RevC.01 23-Sep-2011

 --------------------------------------------
 #B3LYP/6-31++G(d,p) opt scf=direct freq test
 --------------------------------------------

 Geom opt of No.78 candidate from the CEPDB database with SMILE code of
  c1occ2c1ccc1[Se]c3cc([Se]c3c21)-c1cncc2nsnc12, HPC, 20131227, Shuo Da
 i, Gaussian09
 ----------------------------------------------------------------------
 Charge =  0 Multiplicity = 1

 SCF Done:  E(RB3LYP) =  -6090.14562023     A.U. after   28 cycles
 SCF Done:  E(RB3LYP) =  -6090.38660933     A.U. after   29 cycles
 SCF Done:  E(RB3LYP) =  -6090.65307898     A.U. after   29 cycles
 SCF Done:  E(RB3LYP) =  -6090.75628948     A.U. after   30 cycles
 SCF Done:  E(RB3LYP) =  -6090.80873096     A.U. after   29 cycles
 SCF Done:  E(RB3LYP) =  -6090.82894630     A.U. after   32 cycles
 SCF Done:  E(RB3LYP) =  -6090.83833307     A.U. after   26 cycles
 SCF Done:  E(RB3LYP) =  -6090.83745095     A.U. after   26 cycles
 SCF Done:  E(RB3LYP) =  -6090.84349011     A.U. after   26 cycles
 SCF Done:  E(RB3LYP) =  -6090.85363010     A.U. after   25 cycles
 SCF Done:  E(RB3LYP) =  -6090.91591924     A.U. after   18 cycles
 SCF Done:  E(RB3LYP) =  -6090.91596804     A.U. after   18 cycles
 SCF Done:  E(RB3LYP) =  -6090.91597429     A.U. after   18 cycles
 SCF Done:  E(RB3LYP) =  -6090.91598340     A.U. after   16 cycles
 SCF Done:  E(RB3LYP) =  -6090.91598505     A.U. after   12 cycles
 SCF Done:  E(RB3LYP) =  -6090.91598460     A.U. after   11 cycles
 SCF Done:  E(RB3LYP) =  -6090.91598562     A.U. after   11 cycles
 SCF Done:  E(RB3LYP) =  -6090.91598565     A.U. after   11 cycles
 SCF Done:  E(RB3LYP) =  -6090.91598590     A.U. after   10 cycles
 Optimization completed.
    -- Stationary point found.
 Normal termination of Gaussian 09 at Mon Dec 30 03:05:18 2013.

 ----------------------------------------------------------------------
 #N Geom=AllCheck Guess=TCheck SCRF=Check Test GenChk RB3LYP/6-31++G(d,
 p) Freq
 ----------------------------------------------------------------------

 Geom opt of No.78 candidate from the CEPDB database with SMILE code of
  c1occ2c1ccc1[Se]c3cc([Se]c3c21)-c1cncc2nsnc12, HPC, 20131227, Shuo Da
 i, Gaussian09
 ----------------------------------------------------------------------
 Charge =  0 Multiplicity = 1

                         Standard orientation:
 ---------------------------------------------------------------------
 Center     Atomic      Atomic             Coordinates (Angstroms)
 Number     Number       Type             X           Y           Z
 ---------------------------------------------------------------------
      1          6           0       -5.325401    1.253917   -1.773986
      2          8           0       -5.014052    2.324098   -1.003051
      3          6           0       -3.983970    1.992480   -0.178506
      4          6           0       -3.610997    0.682915   -0.405183
      5          6           0       -4.500053    0.199511   -1.455630
      6          6           0       -4.398015   -1.138370   -1.944134
      7          6           0       -3.453963   -1.965094   -1.398994
      8          6           0       -2.585473   -1.489172   -0.365149
      9         34           0       -1.292691   -2.600857    0.506476
     10          6           0       -0.495850   -0.875840    1.188086
     11          6           0        0.492006   -0.376606    0.193109
     12          6           0        1.816533   -0.321254    0.417948
     13         34           0       -1.300024    1.863283    1.762051
     14          6           0       -1.754966   -0.011928    1.360189
     15          6           0       -2.625712   -0.206242    0.135269
     16          6           0        2.828829    0.151149   -0.526164
     17          6           0        2.566699    0.705232   -1.770243
     18          7           0        3.499598    1.143989   -2.670638
     19          6           0        4.777497    1.065282   -2.378457
     20          6           0        5.211125    0.531710   -1.128083
     21          7           0        6.474507    0.401073   -0.698573
     22         16           0        6.377971   -0.267412    0.796964
     23          7           0        4.747275   -0.413003    0.948722
     24          6           0        4.220034    0.067125   -0.186758
     25          1           0       -6.129752    1.389254   -2.479378
     26          1           0       -3.664503    2.759095    0.505818
     27          1           0       -5.058395   -1.489065   -2.731311
     28          1           0       -3.353353   -2.987991   -1.748233
     29          1           0       -0.031685   -1.092359    2.152107
     30          1           0       -0.679307    1.539626    3.052382
     31          1           0        0.074395   -0.071505   -0.763829
     32          1           0        2.204640   -0.647908    1.380632
     33          1           0       -2.305855   -0.388150    2.230686
     34          1           0        1.540175    0.821013   -2.103334
     35          1           0        5.501247    1.418024   -3.108921
 ---------------------------------------------------------------------

 SCF Done:  E(RB3LYP) =  -6090.91598590     A.U. after    2 cycles

 The electronic state is 1-A.
 Alpha  occ. eigenvalues -- -453.89222-453.88594 -88.99736 -57.49130 -57.48617
 Alpha  occ. eigenvalues --  -52.16259 -52.16176 -52.15861 -52.15858 -52.15744
 Alpha  occ. eigenvalues --  -52.15450 -19.24491 -14.39621 -14.39262 -14.35921
 Alpha  occ. eigenvalues --  -10.26476 -10.26118 -10.25461 -10.25444 -10.25147
 Alpha  occ. eigenvalues --  -10.25124 -10.25095 -10.24161 -10.23675 -10.23334
 Alpha  occ. eigenvalues --  -10.22594 -10.21785 -10.21772 -10.21770 -10.21471
 Alpha  occ. eigenvalues --  -10.21376 -10.21357  -8.05058  -7.73082  -7.72843
 Alpha  occ. eigenvalues --   -6.01606  -6.01025  -6.00826  -5.77264  -5.77117
 Alpha  occ. eigenvalues --   -5.76959  -5.76747  -5.76040  -5.75780  -2.12949
 Alpha  occ. eigenvalues --   -2.12905  -2.12821  -2.12746  -2.12134  -2.11936
 Alpha  occ. eigenvalues --   -2.11895  -2.11728  -2.11642  -2.11484  -1.13389
 Alpha  occ. eigenvalues --   -1.04150  -0.96009  -0.91398  -0.89729  -0.85585
 Alpha  occ. eigenvalues --   -0.83396  -0.80291  -0.79831  -0.78312  -0.76241
 Alpha  occ. eigenvalues --   -0.74682  -0.72538  -0.68844  -0.68044  -0.65625
 Alpha  occ. eigenvalues --   -0.64294  -0.63100  -0.61117  -0.60401  -0.58686
 Alpha  occ. eigenvalues --   -0.57360  -0.54079  -0.53326  -0.52728  -0.50922
 Alpha  occ. eigenvalues --   -0.49855  -0.48258  -0.47577  -0.47403  -0.47186
 Alpha  occ. eigenvalues --   -0.47059  -0.45691  -0.44987  -0.43164  -0.42484
 Alpha  occ. eigenvalues --   -0.42221  -0.40424  -0.40151  -0.40105  -0.38909
 Alpha  occ. eigenvalues --   -0.38705  -0.38200  -0.37592  -0.36187  -0.35729
 Alpha  occ. eigenvalues --   -0.34844  -0.34748  -0.33200  -0.32332  -0.30667
 Alpha  occ. eigenvalues --   -0.29771  -0.29346  -0.29122  -0.27719  -0.24745
 Alpha  occ. eigenvalues --   -0.24279  -0.23075  -0.20351
 Alpha virt. eigenvalues --   -0.11431  -0.06806  -0.05611  -0.02965  -0.02471
 Alpha virt. eigenvalues --   -0.02203  -0.01734  -0.00994  -0.00308   0.00023
 Alpha virt. eigenvalues --    0.00105   0.00678   0.00848   0.01164   0.01362

 Mulliken atomic charges:
              1
     1  C    0.231375
     2  O   -0.188168
     3  C    0.194889
     4  C   -0.329293
     5  C    0.488378
     6  C   -0.988100
     7  C   -0.711129
     8  C   -0.105788
     9  Se   0.175120
    10  C    0.327571
    11  C   -0.441485
    12  C   -0.442852
    13  Se  -0.068017
    14  C   -1.273368
    15  C    1.313450
    16  C   -0.096655
    17  C   -0.214373
    18  N   -0.059636
    19  C   -0.271444
    20  C    0.428316
    21  N   -0.425997
    22  S    0.920167
    23  N   -0.404923
    24  C    0.262535
    25  H    0.168274
    26  H    0.207082
    27  H    0.102012
    28  H    0.127185
    29  H    0.212487
    30  H    0.090061
    31  H   -0.083668
    32  H    0.197769
    33  H    0.199719
    34  H    0.274453
    35  H    0.184050
 Sum of Mulliken atomic charges =  -0.00000

 Dipole moment (field-independent basis, Debye):
    X=             -1.1648    Y=             -1.0013    Z=              1.3261  Tot=              2.0292
 Quadrupole moment (field-independent basis, Debye-Ang):
   XX=           -165.1476   YY=           -174.7059   ZZ=           -167.6636
   XY=              0.6449   XZ=             14.5900   YZ=              4.2956

  Exact polarizability: 435.165  -5.171 267.556  30.513 -12.420 264.505
 Approx polarizability: 617.365 -13.908 504.711  60.692 -38.598 489.404

                     1                      2                      3
                     A                      A                      A
 Frequencies --    15.9621                22.3783                37.7839
 Red. masses --    13.1128                10.3010                 9.7220
 Frc consts  --     0.0020                 0.0030                 0.0082
 IR Inten    --     0.0569                 0.0471                 0.0381

                     4                      5                      6
                     A                      A                      A
 Frequencies --    65.1199                85.2743                87.6051
 Red. masses --     7.0705                 7.6472                 9.1784
 Frc consts  --     0.0177                 0.0328                 0.0415
 IR Inten    --     0.3094                 0.0560                 0.0485

                     7                      8                      9
                     A                      A                      A
 Frequencies --   106.5874               120.1027               168.5594
 Red. masses --    10.2166                12.0549                 5.4756
 Frc consts  --     0.0684                 0.1025                 0.0917
 IR Inten    --     1.5986                 0.4537                 1.0730

                    10                     11                     12
                     A                      A                      A
 Frequencies --   190.0699               200.7221               218.0371
 Red. masses --     5.6636                 9.9889                 3.7767
 Frc consts  --     0.1205                 0.2371                 0.1058
 IR Inten    --     0.2879                 0.1645                 1.2693

                    13                     14                     15
                     A                      A                      A
 Frequencies --   243.5938               248.2395               265.2325
 Red. masses --     5.1940                 1.6890                 2.0760
 Frc consts  --     0.1816                 0.0613                 0.0860
 IR Inten    --     0.7774                 6.2146                 6.7466

                    16                     17                     18
                     A                      A                      A
 Frequencies --   266.6673               288.1190               290.4658
 Red. masses --     4.7581                11.5758                 4.0126
 Frc consts  --     0.1994                 0.5662                 0.1995
 IR Inten    --     2.3360                 0.0586                 0.8597

                    19                     20                     21
                     A                      A                      A
 Frequencies --   303.7884               345.9664               369.7157
 Red. masses --     5.6600                 4.9419                 5.0164
 Frc consts  --     0.3078                 0.3485                 0.4040
 IR Inten    --     0.1737                 0.2820                12.5755

                    22                     23                     24
                     A                      A                      A
 Frequencies --   454.3013               475.4973               485.4339
 Red. masses --     7.2403                 4.9757                 5.6408
 Frc consts  --     0.8804                 0.6628                 0.7832
 IR Inten    --    10.0007                13.1631                 2.5274

                    25                     26                     27
                     A                      A                      A
 Frequencies --   493.6371               508.3884               561.3907
 Red. masses --     8.2718                 6.3443                 5.1522
 Frc consts  --     1.1876                 0.9661                 0.9567
 IR Inten    --     9.9964                 0.5446                10.1475

                    28                     29                     30
                     A                      A                      A
 Frequencies --   578.3655               587.9151               599.2978
 Red. masses --     5.6194                 4.7127                 6.2160
 Frc consts  --     1.1075                 0.9597                 1.3154
 IR Inten    --     7.9772                 0.1384                 3.2985

                    31                     32                     33
                     A                      A                      A
 Frequencies --   614.3043               627.1168               634.0281
 Red. masses --     4.7143                 4.6105                 2.8833
 Frc consts  --     1.0482                 1.0683                 0.6829
 IR Inten    --     3.6085                 6.7365                10.3061

                    34                     35                     36
                     A                      A                      A
 Frequencies --   645.3626               673.3399               686.3608
 Red. masses --     4.0384                 6.8699                 1.7161
 Frc consts  --     0.9910                 1.8351                 0.4763
 IR Inten    --     4.3313                 1.7165                 0.5158

                    37                     38                     39
                     A                      A                      A
 Frequencies --   687.3964               740.7072               759.1660
 Red. masses --     3.6338                 1.5993                 1.6913
 Frc consts  --     1.0116                 0.5170                 0.5743
 IR Inten    --     0.6452                34.2353                 4.2782

                    40                     41                     42
                     A                      A                      A
 Frequencies --   776.5237               790.5775               817.2747
 Red. masses --     5.3622                 7.0088                 4.1504
 Frc consts  --     1.9050                 2.5810                 1.6333
 IR Inten    --     2.4080                13.8384                 6.1098

                    43                     44                     45
                     A                      A                      A
 Frequencies --   819.7376               826.5841               839.2054
 Red. masses --     1.7663                10.9388                10.8975
 Frc consts  --     0.6993                 4.4035                 4.5218
 IR Inten    --     8.6999                31.4829                31.1679

                    46                     47                     48
                     A                      A                      A
 Frequencies --   846.5025               857.5502               889.9760
 Red. masses --     4.2499                 2.3264                 2.7807
 Frc consts  --     1.7943                 1.0080                 1.2977
 IR Inten    --     9.2511                20.5233                56.3430

                    49                     50                     51
                     A                      A                      A
 Frequencies --   891.5565               902.9587               907.7045
 Red. masses --     1.7909                 6.7207                 2.0697
 Frc consts  --     0.8387                 3.2285                 1.0047
 IR Inten    --    10.6458                23.6281                 3.5037

                    52                     53                     54
                     A                      A                      A
 Frequencies --   922.3772               948.9786               977.1873
 Red. masses --     4.2423                 1.5196                 3.4418
 Frc consts  --     2.1265                 0.8063                 1.9364
 IR Inten    --     6.2127                 0.2753                 5.1608

                    55                     56                     57
                     A                      A                      A
 Frequencies --   994.4798              1052.2522              1064.5737
 Red. masses --     1.1292                 1.5454                 3.2870
 Frc consts  --     0.6580                 1.0081                 2.1949
 IR Inten    --    20.5118                 0.3561                 2.8009

                    58                     59                     60
                     A                      A                      A
 Frequencies --  1077.0446              1086.2923              1133.1021
 Red. masses --     4.8347                 2.6131                 2.7587
 Frc consts  --     3.3043                 1.8168                 2.0869
 IR Inten    --     1.3521                53.5638                26.7816

                    61                     62                     63
                     A                      A                      A
 Frequencies --  1141.9532              1153.7959              1169.6082
 Red. masses --     2.3445                 3.2888                 1.3566
 Frc consts  --     1.8013                 2.5795                 1.0934
 IR Inten    --     4.3803                 7.9912                 5.8952

                    64                     65                     66
                     A                      A                      A
 Frequencies --  1186.6294              1198.0229              1230.3251
 Red. masses --     3.3349                 1.6474                 1.4685
 Frc consts  --     2.7667                 1.3931                 1.3097
 IR Inten    --     3.0150                 1.1688                22.5584

                    67                     68                     69
                     A                      A                      A
 Frequencies --  1247.2965              1252.2888              1281.8444
 Red. masses --     1.2352                 1.3401                 2.4220
 Frc consts  --     1.1322                 1.2382                 2.3447
 IR Inten    --     9.5155                 5.6196                 0.5176

                    70                     71                     72
                     A                      A                      A
 Frequencies --  1296.8777              1309.1829              1329.0988
 Red. masses --     2.1616                 2.6368                 1.5863
 Frc consts  --     2.1420                 2.6627                 1.6510
 IR Inten    --     8.6037                 3.5411                 5.5445

                    73                     74                     75
                     A                      A                      A
 Frequencies --  1336.2664              1356.7338              1366.0212
 Red. masses --     1.3876                 2.2729                 2.1474
 Frc consts  --     1.4598                 2.4650                 2.3609
 IR Inten    --     7.9525                17.9732                10.2076

                    76                     77                     78
                     A                      A                      A
 Frequencies --  1374.5429              1386.2847              1400.5414
 Red. masses --     5.5267                 4.9771                 2.2441
 Frc consts  --     6.1522                 5.6355                 2.5935
 IR Inten    --    15.2209                 1.0319                26.8943

                    79                     80                     81
                     A                      A                      A
 Frequencies --  1437.7877              1444.9427              1482.9185
 Red. masses --     2.4442                 2.0712                 7.4301
 Frc consts  --     2.9770                 2.5479                 9.6268
 IR Inten    --     7.8459                20.7776                 0.2846

                    82                     83                     84
                     A                      A                      A
 Frequencies --  1509.7559              1549.9511              1556.7287
 Red. masses --     6.8941                 5.6167                 6.3709
 Frc consts  --     9.2585                 7.9500                 9.0965
 IR Inten    --    12.1196                23.2830                 6.7581

                    85                     86                     87
                     A                      A                      A
 Frequencies --  1588.4435              1616.8087              1665.7717
 Red. masses --     5.4545                 5.8343                 7.6753
 Frc consts  --     8.1086                 8.9859                12.5480
 IR Inten    --     1.0640                31.7248                31.4627

                    88                     89                     90
                     A                      A                      A
 Frequencies --  1699.2409              2354.5753              3045.5680
 Red. masses --     5.4203                 1.0202                 1.0840
 Frc consts  --     9.2211                 3.3325                 5.9241
 IR Inten    --    19.7397                20.9491                 3.8558

                    91                     92                     93
                     A                      A                      A
 Frequencies --  3122.8572              3168.9322              3178.8671
 Red. masses --     1.0868                 1.0926                 1.0858
 Frc consts  --     6.2444                 6.4645                 6.4648
 IR Inten    --     5.3078                 5.8696                 7.5444

                    94                     95                     96
                     A                      A                      A
 Frequencies --  3188.1850              3192.4367              3202.1660
 Red. masses --     1.0913                 1.0869                 1.0900
 Frc consts  --     6.5353                 6.5265                 6.5853
 IR Inten    --     4.5531                 0.2916                15.0462

                    97                     98                     99
                     A                      A                      A
 Frequencies --  3208.5211              3296.7020              3320.8962
 Red. masses --     1.0965                 1.0970                 1.0979
 Frc consts  --     6.6507                 7.0246                 7.1341
 IR Inten    --    14.6858                 0.3168                 2.5542

 - Thermochemistry -
 -------------------
 Temperature   298.150 Kelvin.  Pressure   1.00000 Atm.
 Atom     1 has atomic number  6 and mass  12.00000

 Molecular mass:   464.89532 amu.
 Principal axes and moments of inertia in atomic units:
                           1         2         3
     Eigenvalues --  6897.28220********************
           X            0.99996  -0.00044   0.00861
           Y            0.00095   0.99825  -0.05908
           Z           -0.00857   0.05909   0.99822
 This molecule is an asymmetric top.
 Rotational symmetry number  1.
 Warning -- assumption of classical behavior for rotation
           may cause significant error
 Rotational temperatures (Kelvin)      0.01256     0.00374     0.00353
 Rotational constants (GHZ):           0.26166     0.07784     0.07354
 Zero-point vibrational energy     640144.5 (Joules/Mol)
                                  152.99822 (Kcal/Mol)
 Warning -- explicit consideration of  31 degrees of freedom as
           vibrations may cause significant error
 Vibrational temperatures:     22.97    32.20    54.36    93.69   122.69
          (Kelvin)            126.04   153.36   172.80   242.52   273.47
                              288.79   313.71   350.48   357.16   381.61
                              383.67   414.54   417.91   437.08   497.77
                              531.94   653.64   684.13   698.43   710.23
                              731.46   807.72   832.14   845.88   862.25
                              883.85   902.28   912.22   928.53   968.78
                              987.52   989.01  1065.71  1092.27  1117.24
                             1137.46  1175.87  1179.42  1189.27  1207.43
                             1217.93  1233.82  1280.48  1282.75  1299.15
                             1305.98  1327.09  1365.37  1405.95  1430.83
                             1513.95  1531.68  1549.62  1562.93  1630.28
                             1643.01  1660.05  1682.80  1707.29  1723.69
                             1770.16  1794.58  1801.76  1844.29  1865.92
                             1883.62  1912.27  1922.59  1952.03  1965.40
                             1977.66  1994.55  2015.06  2068.65  2078.95
                             2133.59  2172.20  2230.03  2239.78  2285.41
                             2326.22  2396.67  2444.83  3387.70  4381.89
                             4493.09  4559.38  4573.68  4587.08  4593.20
                             4607.20  4616.34  4743.21  4778.02

 Zero-point correction=                           0.243818 (Hartree/Particle)
 Thermal correction to Energy=                    0.263612
 Thermal correction to Enthalpy=                  0.264556
 Thermal correction to Gibbs Free Energy=         0.192232
 Sum of electronic and zero-point Energies=          -6090.672168
 Sum of electronic and thermal Energies=             -6090.652374
 Sum of electronic and thermal Enthalpies=           -6090.651430
 Sum of electronic and thermal Free Energies=        -6090.723754

                     E (Thermal)             CV                S
                      KCal/Mol        Cal/Mol-Kelvin    Cal/Mol-Kelvin
 Total                  165.419             76.619            152.219
 Electronic               0.000              0.000              0.000
 Translational            0.889              2.981             44.298
 Rotational               0.889              2.981             36.616
 Vibrational            163.641             70.658             71.305
 Vibration     1          0.593              1.986              7.082
 Vibration     2          0.593              1.985              6.411
 Vibration     3          0.594              1.982              5.372
 Vibration     4          0.597              1.971              4.296
 Vibration     5          0.601              1.959              3.766
 Vibration     6          0.601              1.958              3.713
 Vibration     7          0.605              1.944              3.330
 Vibration     8          0.609              1.933              3.099
 Vibration     9          0.625              1.881              2.451
 Vibration    10          0.633              1.854              2.227
 Vibration    11          0.638              1.839              2.126
 Vibration    12          0.646              1.814              1.975
 Vibration    13          0.659              1.773              1.776
 Vibration    14          0.662              1.766              1.743
 Vibration    15          0.671              1.737              1.627
 Vibration    16          0.672              1.734              1.618
 Vibration    17          0.685              1.696              1.485
 Vibration    18          0.686              1.691              1.471
 Vibration    19          0.695              1.667              1.396
 Vibration    20          0.724              1.583              1.185
 Vibration    21          0.742              1.534              1.081
 Vibration    22          0.813              1.351              0.783
 Vibration    23          0.832              1.304              0.722
 Vibration    24          0.841              1.282              0.696
 Vibration    25          0.849              1.264              0.674
 Vibration    26          0.864              1.231              0.637
 Vibration    27          0.917              1.115              0.521
 Vibration    28          0.935              1.078              0.488
 Vibration    29          0.945              1.058              0.471
 Vibration    30          0.957              1.033              0.451
 Vibration    31          0.974              1.002              0.426

 Optimization completed.
    -- Stationary point found.
 Normal termination of Gaussian 09 at Mon Dec 30 04:06:17 2013.
