 Gaussian 09, Revision C.01,
 Gaussian 09:  EM64L-G09RevC.01 23-Sep-2011

 --------------------------------------------
 #B3LYP/6-31++G(d,p) opt scf=direct freq test
 --------------------------------------------

 Geom opt of No.50 candidate from the CEPDB database with SMILE code of
  c1cc2c(scc2o1)-c1cc2c3nsnc3c3c4[Se]ccc4[Se]c3c2c2nsnc12, HPC, 2013122
 7, Shuo Dai, Gaussian09
 ----------------------------------------------------------------------
 Charge =  0 Multiplicity = 1

 SCF Done:  E(RB3LYP) =  -7053.61091490     A.U. after   25 cycles
 SCF Done:  E(RB3LYP) =  -7053.85593044     A.U. after   23 cycles
 SCF Done:  E(RB3LYP) =  -7054.11661766     A.U. after   26 cycles
 SCF Done:  E(RB3LYP) =  -7054.23354378     A.U. after   23 cycles
 SCF Done:  E(RB3LYP) =  -7054.31932133     A.U. after   26 cycles
 SCF Done:  E(RB3LYP) =  -7054.37954613     A.U. after   23 cycles
 SCF Done:  E(RB3LYP) =  -7054.39463238     A.U. after   26 cycles
 SCF Done:  E(RB3LYP) =  -7054.43956746     A.U. after   24 cycles
 SCF Done:  E(RB3LYP) =  -7054.42949046     A.U. after   23 cycles
 SCF Done:  E(RB3LYP) =  -7054.44785385     A.U. after   24 cycles
 SCF Done:  E(RB3LYP) =  -7054.53330838     A.U. after   23 cycles
 SCF Done:  E(RB3LYP) =  -7054.53344432     A.U. after   24 cycles
 SCF Done:  E(RB3LYP) =  -7054.53339273     A.U. after   23 cycles
 SCF Done:  E(RB3LYP) =  -7054.53336969     A.U. after   23 cycles
 SCF Done:  E(RB3LYP) =  -7054.53335302     A.U. after   19 cycles
 SCF Done:  E(RB3LYP) =  -7054.53333862     A.U. after   18 cycles
 SCF Done:  E(RB3LYP) =  -7054.53333345     A.U. after   12 cycles
 SCF Done:  E(RB3LYP) =  -7054.53333133     A.U. after   12 cycles
 SCF Done:  E(RB3LYP) =  -7054.53333024     A.U. after   13 cycles
 Optimization completed.
    -- Stationary point found.
 Normal termination of Gaussian 09 at Mon Dec 30 03:12:43 2013.

 ----------------------------------------------------------------------
 #N Geom=AllCheck Guess=TCheck SCRF=Check Test GenChk RB3LYP/6-31++G(d,
 p) Freq
 ----------------------------------------------------------------------

 Geom opt of No.50 candidate from the CEPDB database with SMILE code of
  c1cc2c(scc2o1)-c1cc2c3nsnc3c3c4[Se]ccc4[Se]c3c2c2nsnc12, HPC, 2013122
 7, Shuo Dai, Gaussian09
 ----------------------------------------------------------------------
 Charge =  0 Multiplicity = 1

                         Standard orientation:
 ---------------------------------------------------------------------
 Center     Atomic      Atomic             Coordinates (Angstroms)
 Number     Number       Type             X           Y           Z
 ---------------------------------------------------------------------
      1          6           0        6.465193   -1.575457    1.531693
      2          6           0        5.151936   -1.603241    1.187461
      3          6           0        4.873182   -0.321270    0.581899
      4          6           0        3.857404    0.459648    0.032798
      5         16           0        4.525642    2.037878   -0.410093
      6          6           0        6.120039    1.656269    0.151081
      7          6           0        6.114171    0.382495    0.640086
      8          8           0        7.090390   -0.385124    1.213512
      9          6           0        2.440438    0.218424   -0.174498
     10          6           0        1.524680    1.260526   -0.229158
     11          6           0        0.138837    1.079839   -0.462951
     12          6           0       -0.738252    2.251322   -0.504924
     13          7           0       -0.325913    3.509014   -0.549095
     14         16           0       -1.688247    4.458167   -0.564883
     15          7           0       -2.827362    3.239972   -0.508163
     16          6           0       -2.164589    2.104327   -0.475766
     17          6           0       -2.797550    0.741448   -0.441317
     18          6           0       -3.163081    0.319700    0.971488
     19         34           0       -4.377414   -1.089274    1.218909
     20          6           0       -4.241926   -0.766193    3.059855
     21          6           0       -3.387301    0.265006    3.325878
     22          6           0       -2.799061    0.872396    2.169332
     23         34           0       -2.521400   -1.485360   -2.195410
     24          6           0       -1.843748   -0.286290   -1.069854
     25          6           0       -0.437972   -0.179626   -0.704407
     26          6           0        0.470436   -1.294892   -0.643276
     27          7           0        0.137427   -2.579178   -0.795223
     28         16           0        1.506672   -3.457251   -0.609632
     29          7           0        2.579235   -2.243760   -0.328981
     30          6           0        1.887484   -1.102615   -0.362293
     31          1           0        7.103626   -2.310673    1.998249
     32          1           0        4.474911   -2.430825    1.317210
     33          1           0        6.927914    2.368754    0.072926
     34          1           0        1.858326    2.279732   -0.067912
     35          1           0       -3.706955    0.761258   -1.045963
     36          1           0       -4.793688   -1.367553    3.768862
     37          1           0       -3.174134    0.604929    4.334226
     38          1           0       -2.124150    1.719004    2.240549
 ---------------------------------------------------------------------

 SCF Done:  E(RB3LYP) =  -7054.53333024     A.U. after    2 cycles

 The electronic state is 1-A.
 Alpha  occ. eigenvalues -- -453.90044-453.86129 -88.99421 -88.98220 -88.93922
 Alpha  occ. eigenvalues --  -57.49951 -57.46034 -52.17210 -52.17095 -52.16877
 Alpha  occ. eigenvalues --  -52.13359 -52.13231 -52.12978 -19.23732 -14.39230
 Alpha  occ. eigenvalues --  -14.39222 -14.39066 -14.38916 -10.27334 -10.27216
 Alpha  occ. eigenvalues --  -10.27130 -10.27061 -10.26895 -10.26637 -10.26586
 Alpha  occ. eigenvalues --  -10.25514 -10.25460 -10.25056 -10.24493 -10.24430
 Alpha  occ. eigenvalues --  -10.24250 -10.23656 -10.22928 -10.22842 -10.22338
 Alpha  occ. eigenvalues --  -10.21458 -10.20568 -10.20426  -8.04724  -8.03584
 Alpha  occ. eigenvalues --   -7.99753  -7.74164  -7.70234  -6.01291  -6.00699
 Alpha  occ. eigenvalues --   -6.00474  -6.00185  -5.99607  -5.99231  -5.96204
 Alpha  occ. eigenvalues --   -5.95809  -5.95447  -5.78315  -5.77931  -5.77380
 Alpha  occ. eigenvalues --   -5.74405  -5.74275  -5.73190  -2.13932  -2.13876
 Alpha  occ. eigenvalues --   -2.13379  -2.13069  -2.13021  -2.10231  -2.10129
 Alpha  occ. eigenvalues --   -2.09265  -2.09143  -2.08908  -1.13037  -1.04100
 Alpha  occ. eigenvalues --   -1.03600  -0.91972  -0.91673  -0.91147  -0.89928
 Alpha  occ. eigenvalues --   -0.87241  -0.84758  -0.82132  -0.80715  -0.79878
 Alpha  occ. eigenvalues --   -0.77322  -0.75618  -0.74451  -0.72666  -0.72152
 Alpha  occ. eigenvalues --   -0.69371  -0.67889  -0.66568  -0.64287  -0.63616
 Alpha  occ. eigenvalues --   -0.61626  -0.59933  -0.59274  -0.57461  -0.57161
 Alpha  occ. eigenvalues --   -0.56022  -0.54599  -0.53646  -0.52211  -0.51880
 Alpha  occ. eigenvalues --   -0.50995  -0.50299  -0.48286  -0.47983  -0.47532
 Alpha  occ. eigenvalues --   -0.46999  -0.46199  -0.44964  -0.43867  -0.43786
 Alpha  occ. eigenvalues --   -0.42676  -0.42417  -0.42267  -0.40753  -0.40464
 Alpha  occ. eigenvalues --   -0.40107  -0.39782  -0.38994  -0.38637  -0.37585
 Alpha  occ. eigenvalues --   -0.36975  -0.36643  -0.36044  -0.35581  -0.34840
 Alpha  occ. eigenvalues --   -0.34154  -0.33324  -0.33135  -0.32458  -0.31908
 Alpha  occ. eigenvalues --   -0.31418  -0.30444  -0.29863  -0.27816  -0.26165
 Alpha  occ. eigenvalues --   -0.25612  -0.24792  -0.24188  -0.21989  -0.21379
 Alpha virt. eigenvalues --   -0.13127  -0.09084  -0.08421  -0.06170  -0.03680
 Alpha virt. eigenvalues --   -0.02736  -0.02002  -0.01737  -0.01292  -0.01025
 Alpha virt. eigenvalues --   -0.00841  -0.00322   0.00108   0.00696   0.00984

 Mulliken atomic charges:
              1
     1  C    0.303257
     2  C   -0.467926
     3  C    1.185967
     4  C    0.478860
     5  S    0.005133
     6  C   -0.177543
     7  C   -0.545193
     8  O   -0.304551
     9  C    0.319277
    10  C   -1.315861
    11  C   -0.434069
    12  C    0.207845
    13  N   -0.339550
    14  S    0.858801
    15  N   -0.167785
    16  C   -0.344876
    17  C    0.845516
    18  C   -0.348511
    19  Se   0.096911
    20  C   -0.026743
    21  C   -0.371400
    22  C   -0.217431
    23  Se   0.156683
    24  C   -0.282692
    25  C    0.165488
    26  C   -0.331651
    27  N   -0.257718
    28  S    0.964300
    29  N   -0.428526
    30  C   -0.519426
    31  H    0.161154
    32  H    0.134970
    33  H    0.220794
    34  H    0.119446
    35  H    0.238697
    36  H    0.190402
    37  H    0.128566
    38  H    0.099386
 Sum of Mulliken atomic charges =  -0.00000

 Dipole moment (field-independent basis, Debye):
    X=              3.4079    Y=             -0.2267    Z=              2.6468  Tot=              4.3210
 Quadrupole moment (field-independent basis, Debye-Ang):
   XX=           -210.5540   YY=           -207.1788   ZZ=           -213.8429
   XY=             -0.4979   XZ=             -3.0357   YZ=             -5.5637

  Exact polarizability: 613.536  13.796 430.196  56.242   3.414 278.233
 Approx polarizability:1037.879  94.305 860.449 171.246  45.898 503.566

                     1                      2                      3
                     A                      A                      A
 Frequencies --    13.1439                18.8441                22.7837
 Red. masses --     9.2419                 9.0479                 9.3632
 Frc consts  --     0.0009                 0.0019                 0.0029
 IR Inten    --     0.0693                 0.0439                 0.7037

                     4                      5                      6
                     A                      A                      A
 Frequencies --    31.5425                53.1348                61.3412
 Red. masses --    15.2314                14.7750                12.0153
 Frc consts  --     0.0089                 0.0246                 0.0266
 IR Inten    --     0.1984                 0.8145                 0.2092

                     7                      8                      9
                     A                      A                      A
 Frequencies --    66.0958                73.6601                99.3581
 Red. masses --    10.5408                10.0975                11.7173
 Frc consts  --     0.0271                 0.0323                 0.0682
 IR Inten    --     0.0971                 0.2763                 0.3573

                    10                     11                     12
                     A                      A                      A
 Frequencies --   136.6370               145.1762               159.4173
 Red. masses --    16.4251                12.0130                11.4645
 Frc consts  --     0.1807                 0.1492                 0.1717
 IR Inten    --     0.4305                 0.2568                 0.0208

                    13                     14                     15
                     A                      A                      A
 Frequencies --   175.8934               186.8715               209.1833
 Red. masses --     9.7964                 9.3465                 6.8037
 Frc consts  --     0.1786                 0.1923                 0.1754
 IR Inten    --     0.1267                 2.3640                 0.2502

                    16                     17                     18
                     A                      A                      A
 Frequencies --   219.6066               224.0539               238.9915
 Red. masses --    11.6898                 8.9729                 7.7426
 Frc consts  --     0.3322                 0.2654                 0.2606
 IR Inten    --     0.6183                 2.1473                 3.4813

                    19                     20                     21
                     A                      A                      A
 Frequencies --   249.2625               292.4606               297.9834
 Red. masses --     6.8228                 8.9836                15.8768
 Frc consts  --     0.2498                 0.4527                 0.8306
 IR Inten    --     0.5085                 0.7974                 0.5936

                    22                     23                     24
                     A                      A                      A
 Frequencies --   305.1943               325.2080               403.6757
 Red. masses --     9.0533                 5.7919                11.2522
 Frc consts  --     0.4968                 0.3609                 1.0803
 IR Inten    --     2.7435                 4.6674                 5.0460

                    25                     26                     27
                     A                      A                      A
 Frequencies --   424.0639               435.1095               445.8602
 Red. masses --    11.5120                 6.8579                 6.8544
 Frc consts  --     1.2197                 0.7650                 0.8028
 IR Inten    --     2.1973                 1.3709                28.4413

                    28                     29                     30
                     A                      A                      A
 Frequencies --   458.6799               474.8480               513.8560
 Red. masses --     7.0558                 7.6012                11.4462
 Frc consts  --     0.8746                 1.0098                 1.7807
 IR Inten    --     4.2033                 3.9458                 6.6458

                    31                     32                     33
                     A                      A                      A
 Frequencies --   515.2599               522.6570               540.1762
 Red. masses --    13.4292                10.6988                 5.1473
 Frc consts  --     2.1006                 1.7219                 0.8849
 IR Inten    --     1.8683                10.1773                22.3687

                    34                     35                     36
                     A                      A                      A
 Frequencies --   555.9955               559.1963               579.6234
 Red. masses --     5.3433                 7.7281                 3.6929
 Frc consts  --     0.9732                 1.4238                 0.7310
 IR Inten    --     5.4407                 1.2979                 0.5067

                    37                     38                     39
                     A                      A                      A
 Frequencies --   599.1615               604.7403               627.4825
 Red. masses --     6.8778                 9.1198                 6.4288
 Frc consts  --     1.4548                 1.9651                 1.4914
 IR Inten    --     0.6681                22.0810                 0.1489

                    40                     41                     42
                     A                      A                      A
 Frequencies --   636.8341               676.2709               682.3076
 Red. masses --     5.2288                11.3862                 7.1029
 Frc consts  --     1.2494                 3.0681                 1.9482
 IR Inten    --     9.9006                 7.0673                 7.8775

                    43                     44                     45
                     A                      A                      A
 Frequencies --   701.1347               712.2565               720.9559
 Red. masses --     1.1952                 2.1331                 5.6392
 Frc consts  --     0.3462                 0.6376                 1.7270
 IR Inten    --    63.4410                22.7744                 2.8660

                    46                     47                     48
                     A                      A                      A
 Frequencies --   736.9385               737.2732               744.5834
 Red. masses --     7.4617                 2.4602                 7.3096
 Frc consts  --     2.3875                 0.7879                 2.3876
 IR Inten    --     3.1550                40.5793                 0.9289

                    49                     50                     51
                     A                      A                      A
 Frequencies --   764.5259               783.4651               787.1315
 Red. masses --     9.3841                 1.6697                 8.3994
 Frc consts  --     3.2317                 0.6038                 3.0661
 IR Inten    --    42.9932                28.9998                15.8072

                    52                     53                     54
                     A                      A                      A
 Frequencies --   793.4418               808.5968               811.8533
 Red. masses --     8.3402                 4.8815                10.8086
 Frc consts  --     3.0935                 1.8805                 4.1973
 IR Inten    --     3.9345                 1.2045                38.2942

                    55                     56                     57
                     A                      A                      A
 Frequencies --   819.3072               828.9708               838.0939
 Red. masses --     8.6128                 3.3514                 9.1807
 Frc consts  --     3.4064                 1.3569                 3.7994
 IR Inten    --    20.7926                 7.5420                25.0148

                    58                     59                     60
                     A                      A                      A
 Frequencies --   847.1202               853.4341               854.8429
 Red. masses --     4.8412                 3.4499                 2.6021
 Frc consts  --     2.0469                 1.4805                 1.1203
 IR Inten    --    13.6870                 4.3007                14.2452

                    61                     62                     63
                     A                      A                      A
 Frequencies --   874.7402               884.8277               915.0453
 Red. masses --     8.0068                 1.3385                 1.3203
 Frc consts  --     3.6097                 0.6174                 0.6513
 IR Inten    --     2.8570                 0.3383                 0.6458

                    64                     65                     66
                     A                      A                      A
 Frequencies --   926.2780               931.9721               944.7085
 Red. masses --     2.1098                 6.0127                 2.8405
 Frc consts  --     1.0665                 3.0770                 1.4936
 IR Inten    --    16.0108                 4.9809                18.0864

                    67                     68                     69
                     A                      A                      A
 Frequencies --   958.9746              1040.2146              1048.9130
 Red. masses --     6.6033                 2.7845                 2.9583
 Frc consts  --     3.5779                 1.7752                 1.9176
 IR Inten    --    15.7411                 3.5549                78.9578

                    70                     71                     72
                     A                      A                      A
 Frequencies --  1067.2852              1078.1986              1085.5286
 Red. masses --     2.7443                 1.9490                 3.4877
 Frc consts  --     1.8418                 1.3349                 2.4214
 IR Inten    --   109.4816                 0.9856                34.8787

                    73                     74                     75
                     A                      A                      A
 Frequencies --  1124.8684              1128.7029              1152.2924
 Red. masses --     1.7789                 2.7383                 2.2442
 Frc consts  --     1.3262                 2.0553                 1.7556
 IR Inten    --     5.8883                27.3990                42.9325

                    76                     77                     78
                     A                      A                      A
 Frequencies --  1169.3804              1187.9522              1236.4431
 Red. masses --     3.4992                 2.0486                 3.4945
 Frc consts  --     2.8192                 1.7034                 3.1476
 IR Inten    --    81.2658                24.3955                95.8402

                    79                     80                     81
                     A                      A                      A
 Frequencies --  1257.8835              1259.5200              1307.2666
 Red. masses --     1.4467                 1.8423                 1.5494
 Frc consts  --     1.3487                 1.7219                 1.5600
 IR Inten    --    32.3532                 0.4742                 3.4277

                    82                     83                     84
                     A                      A                      A
 Frequencies --  1313.1957              1320.3717              1346.4261
 Red. masses --     2.0296                 2.8597                 3.4104
 Frc consts  --     2.0622                 2.9374                 3.6427
 IR Inten    --    52.4893                 7.0480                 9.4990

                    85                     86                     87
                     A                      A                      A
 Frequencies --  1364.9535              1373.2671              1387.6707
 Red. masses --     5.0098                 2.2294                 4.3650
 Frc consts  --     5.4993                 2.4771                 4.9523
 IR Inten    --    27.6557                 9.3086                85.4044

                    88                     89                     90
                     A                      A                      A
 Frequencies --  1398.1088              1411.3985              1415.8532
 Red. masses --     8.6236                 9.1729                 4.9386
 Frc consts  --     9.9316                10.7660                 5.8329
 IR Inten    --    23.1947                19.3188               141.6904

                    91                     92                     93
                     A                      A                      A
 Frequencies --  1474.6589              1486.3180              1495.1498
 Red. masses --    10.5458                 9.7706                 6.6396
 Frc consts  --    13.5118                12.7173                 8.7450
 IR Inten    --    10.4364               233.6124                 4.6987

                    94                     95                     96
                     A                      A                      A
 Frequencies --  1530.4548              1556.5091              1568.9415
 Red. masses --     8.6550                 8.7432                 7.2791
 Frc consts  --    11.9443                12.4803                10.5570
 IR Inten    --   470.6354                13.0224               126.3815

                    97                     98                     99
                     A                      A                      A
 Frequencies --  1572.0745              1587.8998              1597.4228
 Red. masses --     6.5906                 5.1599                 5.7462
 Frc consts  --     9.5966                 7.6654                 8.6392
 IR Inten    --    14.3809                 0.3798               178.1506

                   100                    101                    102
                     A                      A                      A
 Frequencies --  1629.1767              3100.5978              3198.2941
 Red. masses --     9.7333                 1.0849                 1.0873
 Frc consts  --    15.2212                 6.1449                 6.5532
 IR Inten    --    41.2684                 0.2987                 7.3963

                   103                    104                    105
                     A                      A                      A
 Frequencies --  3213.4727              3214.1182              3263.8781
 Red. masses --     1.0944                 1.0903                 1.0965
 Frc consts  --     6.6586                 6.6364                 6.8825
 IR Inten    --     4.7089                 7.2185                 0.6298

                   106                    107                    108
                     A                      A                      A
 Frequencies --  3280.1660              3284.3463              3314.4875
 Red. masses --     1.0953                 1.0937                 1.1019
 Frc consts  --     6.9437                 6.9513                 7.1322
 IR Inten    --    14.3358                 1.0652                 2.9945

 - Thermochemistry -
 -------------------
 Temperature   298.150 Kelvin.  Pressure   1.00000 Atm.
 Atom     1 has atomic number  6 and mass  12.00000

 Molecular mass:   575.81907 amu.
 Principal axes and moments of inertia in atomic units:
                           1         2         3
     Eigenvalues --  ******************************
           X            0.99977  -0.02152  -0.00136
           Y            0.02148   0.99949  -0.02361
           Z            0.00187   0.02358   0.99972
 This molecule is an asymmetric top.
 Rotational symmetry number  1.
 Warning -- assumption of classical behavior for rotation
           may cause significant error
 Rotational temperatures (Kelvin)      0.00744     0.00298     0.00259
 Rotational constants (GHZ):           0.15498     0.06203     0.05396
 Zero-point vibrational energy     623767.5 (Joules/Mol)
                                  149.08400 (Kcal/Mol)
 Warning -- explicit consideration of  38 degrees of freedom as
           vibrations may cause significant error
 Vibrational temperatures:     18.91    27.11    32.78    45.38    76.45
          (Kelvin)             88.26    95.10   105.98   142.95   196.59
                              208.88   229.37   253.07   268.87   300.97
                              315.96   322.36   343.86   358.63   420.79
                              428.73   439.11   467.90   580.80   610.13
                              626.02   641.49   659.94   683.20   739.32
                              741.34   751.99   777.19   799.95   804.56
                              833.95   862.06   870.09   902.81   916.26
                              973.00   981.69  1008.78  1024.78  1037.29
                             1060.29  1060.77  1071.29  1099.98  1127.23
                             1132.51  1141.58  1163.39  1168.07  1178.80
                             1192.70  1205.83  1218.82  1227.90  1229.93
                             1258.55  1273.07  1316.54  1332.71  1340.90
                             1359.22  1379.75  1496.63  1509.15  1535.58
                             1551.29  1561.83  1618.43  1623.95  1657.89
                             1682.48  1709.20  1778.96  1809.81  1812.17
                             1880.86  1889.39  1899.72  1937.20  1963.86
                             1975.82  1996.55  2011.56  2030.69  2037.09
                             2121.70  2138.48  2151.18  2201.98  2239.47
                             2257.35  2261.86  2284.63  2298.33  2344.02
                             4461.06  4601.63  4623.46  4624.39  4695.99
                             4719.42  4725.44  4768.80

 Zero-point correction=                           0.237580 (Hartree/Particle)
 Thermal correction to Energy=                    0.261466
 Thermal correction to Enthalpy=                  0.262410
 Thermal correction to Gibbs Free Energy=         0.179320
 Sum of electronic and zero-point Energies=          -7054.295750
 Sum of electronic and thermal Energies=             -7054.271864
 Sum of electronic and thermal Enthalpies=           -7054.270920
 Sum of electronic and thermal Free Energies=        -7054.354010

                     E (Thermal)             CV                S
                      KCal/Mol        Cal/Mol-Kelvin    Cal/Mol-Kelvin
 Total                  164.072             91.605            174.878
 Electronic               0.000              0.000              0.000
 Translational            0.889              2.981             44.936
 Rotational               0.889              2.981             37.669
 Vibrational            162.295             85.644             92.272
 Vibration     1          0.593              1.987              7.468
 Vibration     2          0.593              1.986              6.752
 Vibration     3          0.593              1.985              6.375
 Vibration     4          0.594              1.983              5.730
 Vibration     5          0.596              1.976              4.697
 Vibration     6          0.597              1.973              4.414
 Vibration     7          0.598              1.970              4.266
 Vibration     8          0.599              1.966              4.053
 Vibration     9          0.604              1.950              3.467
 Vibration    10          0.614              1.917              2.850
 Vibration    11          0.617              1.908              2.735
 Vibration    12          0.621              1.892              2.557
 Vibration    13          0.628              1.872              2.372
 Vibration    14          0.632              1.858              2.259
 Vibration    15          0.642              1.827              2.051
 Vibration    16          0.647              1.811              1.962
 Vibration    17          0.649              1.804              1.926
 Vibration    18          0.657              1.781              1.810
 Vibration    19          0.662              1.764              1.736
 Vibration    20          0.688              1.688              1.460
 Vibration    21          0.691              1.677              1.428
 Vibration    22          0.696              1.664              1.388
 Vibration    23          0.709              1.625              1.284
 Vibration    24          0.769              1.462              0.949
 Vibration    25          0.786              1.418              0.878
 Vibration    26          0.796              1.394              0.842
 Vibration    27          0.805              1.370              0.808
 Vibration    28          0.817              1.342              0.770
 Vibration    29          0.832              1.306              0.724
 Vibration    30          0.869              1.219              0.624
 Vibration    31          0.870              1.216              0.621
 Vibration    32          0.878              1.200              0.604
 Vibration    33          0.895              1.161              0.565
 Vibration    34          0.911              1.127              0.532
 Vibration    35          0.915              1.120              0.525
 Vibration    36          0.936              1.075              0.486
 Vibration    37          0.957              1.034              0.451
 Vibration    38          0.963              1.022              0.442

 Normal termination of Gaussian 09 at Mon Dec 30 05:27:47 2013.
