 Gaussian 09, Revision C.01,
 Gaussian 09:  EM64L-G09RevC.01 23-Sep-2011

 --------------------------------------------
 #B3LYP/6-31++G(d,p) opt scf=direct freq test
 --------------------------------------------

 Geom opt of No.19 candidate from the CEPDB database with SMILE code of
  [SiH2]1ccc2c1c(sc2-c1sc(-c2nccc3nsnc23)c2ccoc12)-c1nccs1, HPC, 201312
 27, Shuo Dai, Gaussian09
 ----------------------------------------------------------------------
 Charge =  0 Multiplicity = 1

 SCF Done:  E(RB3LYP) =  -2944.55804436     A.U. after   24 cycles
 SCF Done:  E(RB3LYP) =  -2944.59347340     A.U. after   17 cycles
 SCF Done:  E(RB3LYP) =  -2944.60148876     A.U. after   18 cycles
 SCF Done:  E(RB3LYP) =  -2944.60551563     A.U. after   17 cycles
 SCF Done:  E(RB3LYP) =  -2944.60602687     A.U. after   13 cycles
 SCF Done:  E(RB3LYP) =  -2944.60621196     A.U. after   13 cycles
 SCF Done:  E(RB3LYP) =  -2944.60622848     A.U. after   11 cycles
 SCF Done:  E(RB3LYP) =  -2944.60623150     A.U. after   11 cycles
 SCF Done:  E(RB3LYP) =  -2944.60623590     A.U. after   12 cycles
 SCF Done:  E(RB3LYP) =  -2944.60624811     A.U. after   13 cycles
 SCF Done:  E(RB3LYP) =  -2944.60724815     A.U. after   13 cycles
 SCF Done:  E(RB3LYP) =  -2944.60749653     A.U. after   13 cycles
 SCF Done:  E(RB3LYP) =  -2944.60741709     A.U. after   14 cycles
 SCF Done:  E(RB3LYP) =  -2944.60766213     A.U. after   13 cycles
 SCF Done:  E(RB3LYP) =  -2944.60766717     A.U. after   12 cycles
 SCF Done:  E(RB3LYP) =  -2944.60767399     A.U. after   12 cycles
 SCF Done:  E(RB3LYP) =  -2944.60767523     A.U. after   11 cycles
 SCF Done:  E(RB3LYP) =  -2944.60767586     A.U. after   11 cycles
 SCF Done:  E(RB3LYP) =  -2944.60767605     A.U. after   11 cycles
 Optimization completed.
    -- Stationary point found.
 Normal termination of Gaussian 09 at Wed Jan  1 02:27:56 2014.

 ----------------------------------------------------------------------
 #N Geom=AllCheck Guess=TCheck SCRF=Check Test GenChk RB3LYP/6-31++G(d,
 p) Freq
 ----------------------------------------------------------------------

 Geom opt of No.19 candidate from the CEPDB database with SMILE code of
  [SiH2]1ccc2c1c(sc2-c1sc(-c2nccc3nsnc23)c2ccoc12)-c1nccs1, HPC, 201312
 27, Shuo Dai, Gaussian09
 ----------------------------------------------------------------------
 Charge =  0 Multiplicity = 1

                         Standard orientation:
 ---------------------------------------------------------------------
 Center     Atomic      Atomic             Coordinates (Angstroms)
 Number     Number       Type             X           Y           Z
 ---------------------------------------------------------------------
      1         14           0        4.822729    2.431165   -0.712609
      2          1           0        5.622756    2.227006   -1.944904
      3          1           0        5.708046    2.901810    0.380840
      4          6           0        3.301585    3.518919   -0.973784
      5          6           0        2.169493    2.816095   -0.722747
      6          6           0        2.352710    1.414977   -0.313886
      7          6           0        3.720722    0.982244   -0.255944
      8          6           0        3.853573   -0.344909    0.068990
      9         16           0        2.288033   -1.096398    0.333924
     10          6           0        1.438657    0.408908   -0.023386
     11          6           0       -0.003837    0.441186    0.016457
     12         16           0       -0.976443   -0.972857   -0.370124
     13          6           0       -2.508485   -0.154877   -0.049589
     14          6           0       -3.700496   -0.954268   -0.224206
     15          7           0       -3.511626   -2.221782   -0.583880
     16          6           0       -4.558830   -3.067285   -0.779325
     17          6           0       -5.885798   -2.733409   -0.637532
     18          6           0       -6.157726   -1.394253   -0.256241
     19          7           0       -7.362980   -0.840771   -0.060038
     20         16           0       -7.094251    0.724563    0.362530
     21          7           0       -5.450311    0.752916    0.311671
     22          6           0       -5.056158   -0.473302   -0.041089
     23          6           0       -2.262963    1.168143    0.325446
     24          6           0       -2.906159    2.389680    0.751370
     25          6           0       -1.903452    3.273346    0.991518
     26          8           0       -0.648728    2.747207    0.759418
     27          6           0       -0.872405    1.461059    0.348149
     28          6           0        5.106624   -1.065934    0.189042
     29          7           0        6.273587   -0.483862    0.023527
     30          6           0        7.302470   -1.372975    0.184700
     31          6           0        6.944197   -2.661058    0.479525
     32         16           0        5.218126   -2.786437    0.561805
     33          1           0        3.251003    4.559606   -1.280495
     34          1           0        1.172105    3.236282   -0.803909
     35          1           0       -4.277800   -4.076246   -1.069721
     36          1           0       -6.685540   -3.444501   -0.805606
     37          1           0       -3.962696    2.566697    0.860196
     38          1           0       -1.908981    4.299327    1.327854
     39          1           0        8.323010   -1.026045    0.075090
     40          1           0        7.579269   -3.519062    0.647917
 ---------------------------------------------------------------------

 SCF Done:  E(RB3LYP) =  -2944.60767605     A.U. after    2 cycles

 The electronic state is 1-A.
 Alpha  occ. eigenvalues --  -88.99457 -88.93432 -88.92984 -88.92951 -66.13702
 Alpha  occ. eigenvalues --  -19.23730 -14.39618 -14.38846 -14.35374 -14.35216
 Alpha  occ. eigenvalues --  -10.27768 -10.27194 -10.26976 -10.26818 -10.26680
 Alpha  occ. eigenvalues --  -10.26394 -10.25510 -10.25241 -10.24953 -10.24575
 Alpha  occ. eigenvalues --  -10.24340 -10.23690 -10.23621 -10.22731 -10.21995
 Alpha  occ. eigenvalues --  -10.21558 -10.21221 -10.21113 -10.19628 -10.18709
 Alpha  occ. eigenvalues --   -8.04781  -7.99409  -7.98821  -7.98704  -6.01340
 Alpha  occ. eigenvalues --   -6.00757  -6.00531  -5.95806  -5.95458  -5.95277
 Alpha  occ. eigenvalues --   -5.95174  -5.95133  -5.94892  -5.94771  -5.94490
 Alpha  occ. eigenvalues --   -5.94381  -5.28381  -3.64297  -3.64219  -3.64199
 Alpha  occ. eigenvalues --   -1.13021  -1.03980  -0.98063  -0.96381  -0.91389
 Alpha  occ. eigenvalues --   -0.91078  -0.89276  -0.82545  -0.81688  -0.81617
 Alpha  occ. eigenvalues --   -0.81337  -0.80036  -0.78348  -0.75428  -0.74785
 Alpha  occ. eigenvalues --   -0.72186  -0.71365  -0.68067  -0.65122  -0.64368
 Alpha  occ. eigenvalues --   -0.63297  -0.62629  -0.61488  -0.59542  -0.58086
 Alpha  occ. eigenvalues --   -0.56936  -0.56284  -0.54716  -0.53329  -0.52510
 Alpha  occ. eigenvalues --   -0.51709  -0.49985  -0.49563  -0.48188  -0.47923
 Alpha  occ. eigenvalues --   -0.47850  -0.47227  -0.45875  -0.45001  -0.43885
 Alpha  occ. eigenvalues --   -0.43815  -0.43067  -0.42759  -0.42442  -0.41809
 Alpha  occ. eigenvalues --   -0.41292  -0.40376  -0.40062  -0.39365  -0.38962
 Alpha  occ. eigenvalues --   -0.38386  -0.37712  -0.36874  -0.35761  -0.35541
 Alpha  occ. eigenvalues --   -0.35015  -0.34529  -0.33670  -0.32318  -0.32173
 Alpha  occ. eigenvalues --   -0.31520  -0.31284  -0.30046  -0.29891  -0.29163
 Alpha  occ. eigenvalues --   -0.28615  -0.27944  -0.27582  -0.25413  -0.24453
 Alpha  occ. eigenvalues --   -0.23851  -0.20279
 Alpha virt. eigenvalues --   -0.11866  -0.08364  -0.06303  -0.04265  -0.02736
 Alpha virt. eigenvalues --   -0.01909  -0.01848  -0.00670  -0.00548  -0.00344
 Alpha virt. eigenvalues --   -0.00308  -0.00159   0.00381   0.00662   0.01199

 Mulliken atomic charges:
              1
     1  Si   0.952794
     2  H   -0.091733
     3  H   -0.100682
     4  C   -0.573364
     5  C    0.003425
     6  C    0.600424
     7  C    0.255884
     8  C   -0.704912
     9  S   -0.293467
    10  C   -0.340474
    11  C   -0.288656
    12  S    0.171345
    13  C   -0.161460
    14  C   -0.052749
    15  N   -0.137090
    16  C    0.181828
    17  C   -0.321609
    18  C    0.413860
    19  N   -0.405715
    20  S    0.840533
    21  N   -0.499089
    22  C    0.033695
    23  C   -0.117162
    24  C    0.514249
    25  C   -0.255763
    26  O   -0.274926
    27  C   -0.408560
    28  C   -0.438107
    29  N   -0.028404
    30  C    0.057771
    31  C   -0.171790
    32  S    0.330606
    33  H    0.147120
    34  H    0.125289
    35  H    0.159122
    36  H    0.175040
    37  H    0.202934
    38  H    0.146079
    39  H    0.151810
    40  H    0.201903
 Sum of Mulliken atomic charges =  -0.00000

 Dipole moment (field-independent basis, Debye):
    X=             -0.1262    Y=              0.6484    Z=              0.5260  Tot=              0.8444
 Quadrupole moment (field-independent basis, Debye-Ang):
   XX=           -189.0825   YY=           -186.9884   ZZ=           -211.1724
   XY=            -15.4067   XZ=             -0.3232   YZ=              0.7724

  Exact polarizability: 849.727  39.107 439.641  -1.249   8.516 198.262
 Approx polarizability:1259.448 117.614 855.598  -3.565  31.396 340.908

                     1                      2                      3
                     A                      A                      A
 Frequencies --    15.6344                18.2232                30.4144
 Red. masses --    11.7373                 8.3451                 8.3016
 Frc consts  --     0.0017                 0.0016                 0.0045
 IR Inten    --     0.0753                 0.0510                 0.1515

                     4                      5                      6
                     A                      A                      A
 Frequencies --    37.0150                43.6545                63.3088
 Red. masses --    10.1337                 7.9954                 9.3996
 Frc consts  --     0.0082                 0.0090                 0.0222
 IR Inten    --     1.1965                 0.3375                 0.1267

                     7                      8                      9
                     A                      A                      A
 Frequencies --    78.6214                94.6260               108.6757
 Red. masses --     8.2620                 5.7052                 6.7676
 Frc consts  --     0.0301                 0.0301                 0.0471
 IR Inten    --     1.2174                 0.3820                 0.4539

                    10                     11                     12
                     A                      A                      A
 Frequencies --   135.2623               141.9643               161.3056
 Red. masses --     8.1880                 7.5581                 6.2407
 Frc consts  --     0.0883                 0.0897                 0.0957
 IR Inten    --     0.6369                 0.0510                 0.2438

                    13                     14                     15
                     A                      A                      A
 Frequencies --   169.1838               179.2395               203.3620
 Red. masses --     6.8524                 8.0820                 8.6204
 Frc consts  --     0.1156                 0.1530                 0.2100
 IR Inten    --     1.2714                 0.9350                 0.5387

                    16                     17                     18
                     A                      A                      A
 Frequencies --   212.7609               234.4925               249.3793
 Red. masses --     6.0708                 7.8772                10.1280
 Frc consts  --     0.1619                 0.2552                 0.3711
 IR Inten    --     1.5255                 3.3626                 1.5108

                    19                     20                     21
                     A                      A                      A
 Frequencies --   257.8551               274.2471               295.6334
 Red. masses --    10.4019                 5.4262                 7.0688
 Frc consts  --     0.4075                 0.2405                 0.3640
 IR Inten    --     0.5146                 2.7777                 5.3086

                    22                     23                     24
                     A                      A                      A
 Frequencies --   311.8680               350.3020               374.0839
 Red. masses --     3.6948                 9.7793                 4.3183
 Frc consts  --     0.2117                 0.7070                 0.3560
 IR Inten    --     0.1324                 3.5353                 2.3212

                    25                     26                     27
                     A                      A                      A
 Frequencies --   408.6436               425.9055               447.9624
 Red. masses --     9.2930                 6.8613                 7.7299
 Frc consts  --     0.9143                 0.7333                 0.9139
 IR Inten    --     2.9697                 3.6455                 5.7278

                    28                     29                     30
                     A                      A                      A
 Frequencies --   468.5029               474.3759               484.8123
 Red. masses --     6.9943                 7.8175                 9.4289
 Frc consts  --     0.9045                 1.0365                 1.3057
 IR Inten    --     3.6904                17.1453                10.7999

                    31                     32                     33
                     A                      A                      A
 Frequencies --   502.6252               509.6120               522.2850
 Red. masses --     6.1905                11.8748                 7.6344
 Frc consts  --     0.9214                 1.8170                 1.2270
 IR Inten    --    10.4108                28.1993                 6.4071

                    34                     35                     36
                     A                      A                      A
 Frequencies --   531.9739               536.1074               553.4580
 Red. masses --     6.7259                11.3283                 3.3185
 Frc consts  --     1.1215                 1.9183                 0.5989
 IR Inten    --    14.4512                 0.7095                 3.2819

                    37                     38                     39
                     A                      A                      A
 Frequencies --   564.1295               590.9491               607.2371
 Red. masses --     5.3106                 2.3975                 4.8643
 Frc consts  --     0.9958                 0.4933                 1.0568
 IR Inten    --    13.5868                 0.7948                 2.2750

                    40                     41                     42
                     A                      A                      A
 Frequencies --   609.3370               622.7008               626.8999
 Red. masses --     2.8494                 2.6951                13.2571
 Frc consts  --     0.6233                 0.6157                 3.0697
 IR Inten    --     0.3047                43.1432                 9.1136

                    43                     44                     45
                     A                      A                      A
 Frequencies --   647.8186               656.0970               669.2504
 Red. masses --     3.8617                 8.0502                 7.1202
 Frc consts  --     0.9548                 2.0417                 1.8790
 IR Inten    --     0.4810                 9.9834                 4.5991

                    46                     47                     48
                     A                      A                      A
 Frequencies --   715.0147               720.3896               721.8196
 Red. masses --    10.9007                 1.3216                 1.5701
 Frc consts  --     3.2835                 0.4041                 0.4820
 IR Inten    --    20.9491                39.1480                28.4759

                    49                     50                     51
                     A                      A                      A
 Frequencies --   729.6338               732.9595               747.7568
 Red. masses --     4.2981                 1.7238                 8.8438
 Frc consts  --     1.3481                 0.5456                 2.9135
 IR Inten    --     4.1032                11.1485                 2.3868

                    52                     53                     54
                     A                      A                      A
 Frequencies --   780.9367               790.0249               794.7310
 Red. masses --     6.5373                 1.6443                 2.1216
 Frc consts  --     2.3490                 0.6047                 0.7895
 IR Inten    --    22.3100                32.5966                38.8993

                    55                     56                     57
                     A                      A                      A
 Frequencies --   795.3184               806.5187               820.2229
 Red. masses --     3.1043                 6.6103                 1.6465
 Frc consts  --     1.1569                 2.5334                 0.6527
 IR Inten    --    10.8725                27.1861                33.2022

                    58                     59                     60
                     A                      A                      A
 Frequencies --   825.5305               831.3692               857.7598
 Red. masses --    12.4523                11.7715                 2.4897
 Frc consts  --     5.0000                 4.7937                 1.0793
 IR Inten    --    62.4091                20.6509                52.3865

                    61                     62                     63
                     A                      A                      A
 Frequencies --   859.4302               876.4010               880.0524
 Red. masses --    10.0911                 8.3170                 5.1603
 Frc consts  --     4.3915                 3.7637                 2.3547
 IR Inten    --    12.8035                15.1614                64.7224

                    64                     65                     66
                     A                      A                      A
 Frequencies --   898.2626               902.4858               911.4124
 Red. masses --     1.3206                 1.3227                 7.9078
 Frc consts  --     0.6278                 0.6347                 3.8702
 IR Inten    --     1.3919                 3.0696                33.7546

                    67                     68                     69
                     A                      A                      A
 Frequencies --   916.3934               927.9641               958.0496
 Red. masses --     7.2859                 6.3627                 1.0630
 Frc consts  --     3.6050                 3.2282                 0.5748
 IR Inten    --    43.3220                 1.1941               193.4799

                    70                     71                     72
                     A                      A                      A
 Frequencies --   978.9582               985.1470               996.0185
 Red. masses --     7.1404                 1.3565                 1.3098
 Frc consts  --     4.0318                 0.7757                 0.7656
 IR Inten    --    26.8293                 0.4284                 1.3058

                    73                     74                     75
                     A                      A                      A
 Frequencies --  1018.2628              1049.7591              1075.9392
 Red. masses --     4.7513                 2.8069                 3.4058
 Frc consts  --     2.9026                 1.8225                 2.3230
 IR Inten    --    28.0908                95.3616                17.1092

                    76                     77                     78
                     A                      A                      A
 Frequencies --  1088.2046              1095.7373              1130.5571
 Red. masses --     1.4536                 2.0428                 1.2554
 Frc consts  --     1.0142                 1.4450                 0.9454
 IR Inten    --    17.0147                59.2729                 3.3617

                    79                     80                     81
                     A                      A                      A
 Frequencies --  1162.1720              1164.8452              1170.6255
 Red. masses --     2.1973                 1.8321                 3.8269
 Frc consts  --     1.7486                 1.4646                 3.0898
 IR Inten    --   134.8308                87.4530                11.1646

                    82                     83                     84
                     A                      A                      A
 Frequencies --  1260.1907              1260.7938              1273.5080
 Red. masses --     2.5380                 4.4864                 4.2595
 Frc consts  --     2.3747                 4.2018                 4.0701
 IR Inten    --     1.0421                 6.9617                38.0981

                    85                     86                     87
                     A                      A                      A
 Frequencies --  1318.2486              1338.1333              1340.7975
 Red. masses --     2.6453                 3.7267                 2.4716
 Frc consts  --     2.7084                 3.9317                 2.6179
 IR Inten    --    69.5441                79.1820                 3.0462

                    88                     89                     90
                     A                      A                      A
 Frequencies --  1349.0152              1352.0095              1361.1961
 Red. masses --     6.4200                 2.2043                 2.8234
 Frc consts  --     6.8836                 2.3740                 3.0823
 IR Inten    --   125.4019                17.5268                14.3270

                    91                     92                     93
                     A                      A                      A
 Frequencies --  1401.4583              1403.1772              1435.2546
 Red. masses --     4.2048                 7.0549                 3.5040
 Frc consts  --     4.8658                 8.1840                 4.2528
 IR Inten    --     2.8896                48.9741                14.4735

                    94                     95                     96
                     A                      A                      A
 Frequencies --  1457.2295              1485.4618              1502.0691
 Red. masses --     7.5847                 8.1898                 9.5649
 Frc consts  --     9.4895                10.6474                12.7149
 IR Inten    --    13.7022               813.9405                22.0271

                    97                     98                     99
                     A                      A                      A
 Frequencies --  1525.5065              1535.9327              1554.1562
 Red. masses --     5.7412                 6.3503                 6.4072
 Frc consts  --     7.8720                 8.8265                 9.1182
 IR Inten    --    77.9490               416.7713                19.5668

                   100                    101                    102
                     A                      A                      A
 Frequencies --  1563.4500              1571.2552              1586.7116
 Red. masses --     9.5177                 4.9830                 6.9497
 Frc consts  --    13.7073                 7.2482                10.3089
 IR Inten    --   154.3244                27.8370                 4.6893

                   103                    104                    105
                     A                      A                      A
 Frequencies --  1604.6211              1622.2972              2242.4751
 Red. masses --     7.3079                11.1640                 1.0368
 Frc consts  --    11.0863                17.3113                 3.0718
 IR Inten    --    38.6066                25.9264               169.4754

                   106                    107                    108
                     A                      A                      A
 Frequencies --  2245.5486              3185.6991              3191.7729
 Red. masses --     1.0451                 1.0899                 1.0865
 Frc consts  --     3.1049                 6.5170                 6.5212
 IR Inten    --   129.3731                37.1773                 2.1559

                   109                    110                    111
                     A                      A                      A
 Frequencies --  3215.1237              3232.2100              3233.6295
 Red. masses --     1.0963                 1.0911                 1.0948
 Frc consts  --     6.6769                 6.7163                 6.7445
 IR Inten    --    10.8342                16.5235                 3.4353

                   112                    113                    114
                     A                      A                      A
 Frequencies --  3276.4353              3284.5327              3318.2222
 Red. masses --     1.0981                 1.0944                 1.1011
 Frc consts  --     6.9455                 6.9561                 7.1431
 IR Inten    --     1.3355                 1.7687                 4.5291

 - Thermochemistry -
 -------------------
 Temperature   298.150 Kelvin.  Pressure   1.00000 Atm.
 Atom     1 has atomic number 14 and mass  27.97693

 Molecular mass:   477.95068 amu.
 Principal axes and moments of inertia in atomic units:
                           1         2         3
     Eigenvalues --  6529.91704********************
           X            0.99999   0.00436  -0.00046
           Y           -0.00436   0.99999   0.00056
           Z            0.00047  -0.00056   1.00000
 This molecule is an asymmetric top.
 Rotational symmetry number  1.
 Warning -- assumption of classical behavior for rotation
           may cause significant error
 Rotational temperatures (Kelvin)      0.01326     0.00251     0.00215
 Rotational constants (GHZ):           0.27638     0.05222     0.04486
 Zero-point vibrational energy     668393.0 (Joules/Mol)
                                  159.74976 (Kcal/Mol)
 Warning -- explicit consideration of  40 degrees of freedom as
           vibrations may cause significant error
 Vibrational temperatures:     22.49    26.22    43.76    53.26    62.81
          (Kelvin)             91.09   113.12   136.15   156.36   194.61
                              204.25   232.08   243.42   257.89   292.59
                              306.12   337.38   358.80   371.00   394.58
                              425.35   448.71   504.01   538.22   587.95
                              612.78   644.52   674.07   682.52   697.54
                              723.16   733.22   751.45   765.39   771.34
                              796.30   811.66   850.24   873.68   876.70
                              895.93   901.97   932.07   943.98   962.90
                             1028.75  1036.48  1038.54  1049.78  1054.56
                             1075.85  1123.59  1136.67  1143.44  1144.28
                             1160.40  1180.12  1187.75  1196.15  1234.12
                             1236.53  1260.94  1266.20  1292.40  1298.47
                             1311.32  1318.48  1335.13  1378.42  1408.50
                             1417.40  1433.05  1465.05  1510.37  1548.03
                             1565.68  1576.52  1626.62  1672.10  1675.95
                             1684.27  1813.13  1814.00  1832.29  1896.66
                             1925.27  1929.11  1940.93  1945.24  1958.46
                             2016.38  2018.86  2065.01  2096.63  2137.25
                             2161.14  2194.86  2209.86  2236.08  2249.45
                             2260.68  2282.92  2308.69  2334.12  3226.42
                             3230.84  4583.50  4592.24  4625.84  4650.42
                             4652.47  4714.05  4725.70  4774.18

 Zero-point correction=                           0.254577 (Hartree/Particle)
 Thermal correction to Energy=                    0.278993
 Thermal correction to Enthalpy=                  0.279937
 Thermal correction to Gibbs Free Energy=         0.197180
 Sum of electronic and zero-point Energies=          -2944.353099
 Sum of electronic and thermal Energies=             -2944.328683
 Sum of electronic and thermal Enthalpies=           -2944.327739
 Sum of electronic and thermal Free Energies=        -2944.410496

                     E (Thermal)             CV                S
                      KCal/Mol        Cal/Mol-Kelvin    Cal/Mol-Kelvin
 Total                  175.071             95.263            174.177
 Electronic               0.000              0.000              0.000
 Translational            0.889              2.981             44.381
 Rotational               0.889              2.981             37.449
 Vibrational            173.293             89.302             92.347
 Vibration     1          0.593              1.986              7.123
 Vibration     2          0.593              1.986              6.819
 Vibration     3          0.594              1.984              5.802
 Vibration     4          0.594              1.982              5.413
 Vibration     5          0.595              1.980              5.086
 Vibration     6          0.597              1.972              4.351
 Vibration     7          0.600              1.964              3.925
 Vibration     8          0.603              1.953              3.562
 Vibration     9          0.606              1.942              3.292
 Vibration    10          0.613              1.918              2.870
 Vibration    11          0.615              1.911              2.777
 Vibration    12          0.622              1.890              2.534
 Vibration    13          0.625              1.880              2.445
 Vibration    14          0.629              1.868              2.336
 Vibration    15          0.639              1.835              2.102
 Vibration    16          0.644              1.821              2.020
 Vibration    17          0.654              1.788              1.844
 Vibration    18          0.662              1.764              1.735
 Vibration    19          0.667              1.749              1.676
 Vibration    20          0.677              1.721              1.569
 Vibration    21          0.690              1.682              1.442
 Vibration    22          0.700              1.651              1.352
 Vibration    23          0.727              1.575              1.165
 Vibration    24          0.745              1.525              1.063
 Vibration    25          0.773              1.451              0.931
 Vibration    26          0.788              1.414              0.872
 Vibration    27          0.807              1.365              0.802
 Vibration    28          0.826              1.320              0.742
 Vibration    29          0.831              1.307              0.725
 Vibration    30          0.841              1.284              0.697
 Vibration    31          0.858              1.244              0.652
 Vibration    32          0.865              1.229              0.635
 Vibration    33          0.877              1.201              0.605
 Vibration    34          0.887              1.179              0.583
 Vibration    35          0.891              1.170              0.574
 Vibration    36          0.909              1.132              0.537
 Vibration    37          0.920              1.109              0.516
 Vibration    38          0.948              1.051              0.465
 Vibration    39          0.966              1.016              0.437
 Vibration    40          0.968              1.012              0.434

 Normal termination of Gaussian 09 at Wed Jan  1 04:07:56 2014.
