 Gaussian 09, Revision C.01,
 Gaussian 09:  EM64L-G09RevC.01 23-Sep-2011

 --------------------------------------------
 #B3LYP/6-31++G(d,p) opt scf=direct freq test
 --------------------------------------------

 Geom opt of No.90 candidate from the CEPDB database with SMILE code of
  C1ccc2c1c(sc2-c1cnc(s1)-c1nccc2nsnc12)-c1scc2[SiH2]ccc12, HPC, 201312
 27, Shuo Dai, Gaussian09
 ----------------------------------------------------------------------
 Charge =  0 Multiplicity = 1

 SCF Done:  E(RB3LYP) =  -2908.61093127     A.U. after   25 cycles
 SCF Done:  E(RB3LYP) =  -2908.66136799     A.U. after   18 cycles
 SCF Done:  E(RB3LYP) =  -2908.68615823     A.U. after   15 cycles
 SCF Done:  E(RB3LYP) =  -2908.68816993     A.U. after   18 cycles
 SCF Done:  E(RB3LYP) =  -2908.68978729     A.U. after   15 cycles
 SCF Done:  E(RB3LYP) =  -2908.69004866     A.U. after   13 cycles
 SCF Done:  E(RB3LYP) =  -2908.69007821     A.U. after   12 cycles
 SCF Done:  E(RB3LYP) =  -2908.69008558     A.U. after   11 cycles
 SCF Done:  E(RB3LYP) =  -2908.69009285     A.U. after   12 cycles
 SCF Done:  E(RB3LYP) =  -2908.69022462     A.U. after   17 cycles
 SCF Done:  E(RB3LYP) =  -2908.69624432     A.U. after   14 cycles
 SCF Done:  E(RB3LYP) =  -2908.69626332     A.U. after   14 cycles
 SCF Done:  E(RB3LYP) =  -2908.69629267     A.U. after   13 cycles
 SCF Done:  E(RB3LYP) =  -2908.69630503     A.U. after   14 cycles
 SCF Done:  E(RB3LYP) =  -2908.69630054     A.U. after   14 cycles
 SCF Done:  E(RB3LYP) =  -2908.69630608     A.U. after   13 cycles
 SCF Done:  E(RB3LYP) =  -2908.69630663     A.U. after   12 cycles
 SCF Done:  E(RB3LYP) =  -2908.69630683     A.U. after   11 cycles
 SCF Done:  E(RB3LYP) =  -2908.69630680     A.U. after   11 cycles
 Optimization completed.
    -- Stationary point found.
 Normal termination of Gaussian 09 at Mon Dec 30 09:46:45 2013.

 ----------------------------------------------------------------------
 #N Geom=AllCheck Guess=TCheck SCRF=Check Test GenChk RB3LYP/6-31++G(d,
 p) Freq
 ----------------------------------------------------------------------

 Geom opt of No.90 candidate from the CEPDB database with SMILE code of
  C1ccc2c1c(sc2-c1cnc(s1)-c1nccc2nsnc12)-c1scc2[SiH2]ccc12, HPC, 201312
 27, Shuo Dai, Gaussian09
 ----------------------------------------------------------------------
 Charge =  0 Multiplicity = 1

                         Standard orientation:
 ---------------------------------------------------------------------
 Center     Atomic      Atomic             Coordinates (Angstroms)
 Number     Number       Type             X           Y           Z
 ---------------------------------------------------------------------
      1          6           0        2.695783    2.285358   -1.149779
      2          6           0        1.355169    2.961553   -1.366247
      3          6           0        0.321409    2.147347   -1.053666
      4          6           0        0.846872    0.858857   -0.605951
      5          6           0        2.276758    0.924235   -0.647188
      6          6           0        2.904187   -0.248123   -0.308336
      7         16           0        1.695134   -1.471111    0.096763
      8          6           0        0.348476   -0.378045   -0.231598
      9          6           0       -1.010041   -0.843890   -0.101245
     10          6           0       -1.466212   -2.151034    0.018332
     11          7           0       -2.803231   -2.321713    0.134161
     12          6           0       -3.449995   -1.177392    0.111469
     13         16           0       -2.386532    0.228047   -0.053395
     14          6           0       -4.909849   -1.077507    0.209137
     15          7           0       -5.599148   -2.199110    0.326482
     16          6           0       -6.959536   -2.171923    0.422831
     17          6           0       -7.740022   -1.038810    0.410729
     18          6           0       -7.052269    0.195629    0.287159
     19          7           0       -7.583475    1.427144    0.252281
     20         16           0       -6.325270    2.472010    0.099922
     21          7           0       -5.072681    1.407507    0.072636
     22          6           0       -5.608672    0.188137    0.183558
     23          6           0        4.325505   -0.556179   -0.253771
     24         16           0        4.985017   -1.968638   -1.075530
     25          6           0        6.606439   -1.578253   -0.570254
     26          6           0        6.655709   -0.436895    0.175242
     27         14           0        7.880041    0.646881    1.102660
     28          1           0        8.879888    1.317223    0.230200
     29          1           0        8.610525   -0.050887    2.192528
     30          6           0        6.495891    1.771930    1.705550
     31          6           0        5.306403    1.333500    1.225382
     32          6           0        5.342947    0.143781    0.365911
     33          1           0        3.319518    2.840731   -0.437680
     34          1           0        3.277851    2.220168   -2.079557
     35          1           0        1.263477    3.978741   -1.730559
     36          1           0       -0.727426    2.405027   -1.132303
     37          1           0       -0.822323   -3.023357    0.011269
     38          1           0       -7.423289   -3.150514    0.515195
     39          1           0       -8.820041   -1.077100    0.490607
     40          1           0        7.416390   -2.234348   -0.863007
     41          1           0        6.556192    2.638359    2.356809
     42          1           0        4.355117    1.804255    1.462577
 ---------------------------------------------------------------------

 SCF Done:  E(RB3LYP) =  -2908.69630680     A.U. after    4 cycles

 The electronic state is 1-A.
 Alpha  occ. eigenvalues --  -88.99867 -88.93127 -88.92668 -88.92593 -66.14544
 Alpha  occ. eigenvalues --  -14.39870 -14.39279 -14.35375 -14.35090 -10.27142
 Alpha  occ. eigenvalues --  -10.26784 -10.26712 -10.26651 -10.25001 -10.24809
 Alpha  occ. eigenvalues --  -10.24788 -10.24595 -10.24461 -10.23684 -10.23213
 Alpha  occ. eigenvalues --  -10.22142 -10.22122 -10.21842 -10.21814 -10.21754
 Alpha  occ. eigenvalues --  -10.21611 -10.21510 -10.21320 -10.19756 -10.19516
 Alpha  occ. eigenvalues --   -8.05178  -7.98977  -7.98552  -7.98430  -6.01733
 Alpha  occ. eigenvalues --   -6.01149  -6.00938  -5.95392  -5.95029  -5.94987
 Alpha  occ. eigenvalues --   -5.94896  -5.94698  -5.94597  -5.94502  -5.94262
 Alpha  occ. eigenvalues --   -5.94093  -5.29281  -3.65178  -3.65117  -3.65107
 Alpha  occ. eigenvalues --   -1.04342  -0.98305  -0.95725  -0.91819  -0.91534
 Alpha  occ. eigenvalues --   -0.89672  -0.84922  -0.82581  -0.81778  -0.81371
 Alpha  occ. eigenvalues --   -0.80287  -0.77973  -0.75104  -0.73552  -0.72476
 Alpha  occ. eigenvalues --   -0.71998  -0.69979  -0.68211  -0.64843  -0.64163
 Alpha  occ. eigenvalues --   -0.62857  -0.61603  -0.59313  -0.58749  -0.57338
 Alpha  occ. eigenvalues --   -0.56161  -0.54758  -0.53630  -0.53229  -0.52517
 Alpha  occ. eigenvalues --   -0.51823  -0.50215  -0.48673  -0.48083  -0.47737
 Alpha  occ. eigenvalues --   -0.46202  -0.45563  -0.45095  -0.43502  -0.43480
 Alpha  occ. eigenvalues --   -0.43376  -0.42960  -0.42163  -0.41791  -0.40759
 Alpha  occ. eigenvalues --   -0.40333  -0.40262  -0.39823  -0.39696  -0.38891
 Alpha  occ. eigenvalues --   -0.38663  -0.37355  -0.37036  -0.35953  -0.35592
 Alpha  occ. eigenvalues --   -0.34737  -0.34346  -0.34117  -0.32200  -0.31859
 Alpha  occ. eigenvalues --   -0.31691  -0.31524  -0.30839  -0.29898  -0.28675
 Alpha  occ. eigenvalues --   -0.28578  -0.27271  -0.27101  -0.25432  -0.24539
 Alpha  occ. eigenvalues --   -0.23831  -0.20667
 Alpha virt. eigenvalues --   -0.12070  -0.07896  -0.05838  -0.03979  -0.03644
 Alpha virt. eigenvalues --   -0.02009  -0.01941  -0.01740  -0.01240  -0.00845
 Alpha virt. eigenvalues --   -0.00552  -0.00365  -0.00104   0.00634   0.00724

 Mulliken atomic charges:
              1
     1  C   -0.879497
     2  C    0.162249
     3  C   -0.553314
     4  C    0.605706
     5  C    0.708307
     6  C    0.046941
     7  S    0.087861
     8  C   -0.267054
     9  C    0.074293
    10  C    0.068058
    11  N   -0.057664
    12  C   -0.797967
    13  S    0.428950
    14  C   -0.813794
    15  N   -0.043087
    16  C    0.142017
    17  C   -0.241934
    18  C   -0.809075
    19  N   -0.362101
    20  S    0.890547
    21  N   -0.485855
    22  C    1.199466
    23  C   -0.061119
    24  S    0.051931
    25  C   -0.082374
    26  C   -0.097837
    27  Si   0.879862
    28  H   -0.108158
    29  H   -0.094147
    30  C   -0.556490
    31  C   -0.136866
    32  C   -0.407497
    33  H    0.155259
    34  H    0.181575
    35  H    0.150501
    36  H    0.085072
    37  H    0.163056
    38  H    0.169349
    39  H    0.179978
    40  H    0.183893
    41  H    0.125218
    42  H    0.115739
 Sum of Mulliken atomic charges =  -0.00000

 Dipole moment (field-independent basis, Debye):
    X=              2.0669    Y=              3.4499    Z=             -0.5390  Tot=              4.0577
 Quadrupole moment (field-independent basis, Debye-Ang):
   XX=           -187.4763   YY=           -203.1868   ZZ=           -210.1146
   XY=             -2.4323   XZ=             -0.8980   YZ=              0.3610

  Exact polarizability: 845.166  36.514 396.067  -2.828  -0.729 222.043
 Approx polarizability:1160.643  79.088 793.263 -15.450  -3.010 379.457

                     1                      2                      3
                     A                      A                      A
 Frequencies --     9.4110                16.9684                28.9151
 Red. masses --     9.0388                 7.7791                 7.9015
 Frc consts  --     0.0005                 0.0013                 0.0039
 IR Inten    --     0.0246                 0.0408                 0.1313

                     4                      5                      6
                     A                      A                      A
 Frequencies --    32.8370                46.6603                56.4565
 Red. masses --     7.5041                 9.8924                 6.8480
 Frc consts  --     0.0048                 0.0127                 0.0129
 IR Inten    --     0.3226                 0.2223                 0.0286

                     7                      8                      9
                     A                      A                      A
 Frequencies --    60.3279                89.7630               101.2833
 Red. masses --     8.7916                 6.4413                 8.5542
 Frc consts  --     0.0189                 0.0306                 0.0517
 IR Inten    --     0.1397                 0.2905                 0.2415

                    10                     11                     12
                     A                      A                      A
 Frequencies --   137.6371               149.4640               153.7975
 Red. masses --     5.3446                 7.5743                 4.0631
 Frc consts  --     0.0597                 0.0997                 0.0566
 IR Inten    --     0.0718                 0.3518                 0.2427

                    13                     14                     15
                     A                      A                      A
 Frequencies --   172.8848               187.9059               192.8712
 Red. masses --     5.7476                 4.5236                 7.8211
 Frc consts  --     0.1012                 0.0941                 0.1714
 IR Inten    --     0.8433                 1.4191                 0.4142

                    16                     17                     18
                     A                      A                      A
 Frequencies --   205.0286               228.3777               251.3895
 Red. masses --     7.4996                 9.0560                 5.8598
 Frc consts  --     0.1857                 0.2783                 0.2182
 IR Inten    --     0.1875                 0.2329                 6.4799

                    19                     20                     21
                     A                      A                      A
 Frequencies --   261.6512               275.1882               306.6129
 Red. masses --     5.0062                10.2460                 5.5816
 Frc consts  --     0.2019                 0.4572                 0.3092
 IR Inten    --     0.7648                 0.6059                 0.6891

                    22                     23                     24
                     A                      A                      A
 Frequencies --   340.3551               346.7916               369.4597
 Red. masses --     8.2366                 6.2233                 3.0914
 Frc consts  --     0.5622                 0.4410                 0.2486
 IR Inten    --     6.8423                 0.2111                 2.5847

                    25                     26                     27
                     A                      A                      A
 Frequencies --   381.4023               388.2896               437.2410
 Red. masses --     4.2575                 3.7171                 3.6471
 Frc consts  --     0.3649                 0.3302                 0.4108
 IR Inten    --     4.9964                 0.2093                 7.1008

                    28                     29                     30
                     A                      A                      A
 Frequencies --   454.0891               461.0672               472.8472
 Red. masses --     7.9398                 9.3977                 5.9874
 Frc consts  --     0.9646                 1.1771                 0.7887
 IR Inten    --     1.8429                25.7924                 6.3404

                    31                     32                     33
                     A                      A                      A
 Frequencies --   486.8178               491.1730               504.3726
 Red. masses --     6.9118                 8.1692                 5.9689
 Frc consts  --     0.9651                 1.1612                 0.8946
 IR Inten    --     9.1801                13.7277                 5.6600

                    34                     35                     36
                     A                      A                      A
 Frequencies --   507.1896               529.4541               544.9901
 Red. masses --    10.7787                13.0918                 4.9187
 Frc consts  --     1.6336                 2.1623                 0.8607
 IR Inten    --     4.1015                 2.3341                 1.3333

                    37                     38                     39
                     A                      A                      A
 Frequencies --   560.3238               581.1235               602.9275
 Red. masses --     5.1777                 4.2927                 2.7279
 Frc consts  --     0.9578                 0.8541                 0.5843
 IR Inten    --    11.2925                 2.0438                 2.2981

                    40                     41                     42
                     A                      A                      A
 Frequencies --   604.2307               616.2044               622.5773
 Red. masses --     3.3874                 4.2174                 1.8573
 Frc consts  --     0.7287                 0.9435                 0.4241
 IR Inten    --     3.2922                17.0543                41.7369

                    43                     44                     45
                     A                      A                      A
 Frequencies --   641.3966               655.4699               675.0408
 Red. masses --    11.9512                 7.8383                 7.5915
 Frc consts  --     2.8968                 1.9842                 2.0382
 IR Inten    --     3.1334                11.2947                 0.2912

                    46                     47                     48
                     A                      A                      A
 Frequencies --   683.1941               720.8887               728.8396
 Red. masses --     2.1498                 1.5742                 1.8130
 Frc consts  --     0.5912                 0.4820                 0.5674
 IR Inten    --    15.8755                10.8348                 6.6886

                    49                     50                     51
                     A                      A                      A
 Frequencies --   731.8261               740.0889               752.6990
 Red. masses --    10.4497                 6.4487                 2.0326
 Frc consts  --     3.2974                 2.0811                 0.6785
 IR Inten    --     8.1775                 2.0145                16.8153

                    52                     53                     54
                     A                      A                      A
 Frequencies --   756.6221               769.3320               786.0319
 Red. masses --     8.2954                 5.2438                 1.3771
 Frc consts  --     2.7980                 1.8286                 0.5013
 IR Inten    --    23.8248                11.5092                 4.9782

                    55                     56                     57
                     A                      A                      A
 Frequencies --   792.3013               797.7975               817.4381
 Red. masses --     5.9068                 1.9211                 6.9711
 Frc consts  --     2.1847                 0.7204                 2.7445
 IR Inten    --     0.6086                53.1739                 8.9164

                    58                     59                     60
                     A                      A                      A
 Frequencies --   824.6002               830.1802               830.7035
 Red. masses --     5.9646                10.2388                 1.5189
 Frc consts  --     2.3896                 4.1576                 0.6175
 IR Inten    --    15.7152                12.0486                29.8249

                    61                     62                     63
                     A                      A                      A
 Frequencies --   835.9927               859.4286               864.5046
 Red. masses --    13.4473                 2.1139                 7.1201
 Frc consts  --     5.5372                 0.9199                 3.1352
 IR Inten    --    73.4781                83.0226                13.3155

                    64                     65                     66
                     A                      A                      A
 Frequencies --   867.7863               886.1785               905.1775
 Red. masses --     1.4281                 9.6624                 6.1651
 Frc consts  --     0.6336                 4.4707                 2.9762
 IR Inten    --    10.5048                31.4356                14.7535

                    67                     68                     69
                     A                      A                      A
 Frequencies --   933.5813               945.5784               951.3780
 Red. masses --     5.7920                 1.7363                 6.5435
 Frc consts  --     2.9743                 0.9147                 3.4895
 IR Inten    --    11.7839                 6.8595                 2.2125

                    70                     71                     72
                     A                      A                      A
 Frequencies --   952.8301               964.6294               973.7823
 Red. masses --     2.4482                 1.4824                 1.0668
 Frc consts  --     1.3096                 0.8127                 0.5960
 IR Inten    --     7.2049                 0.1584               285.2949

                    73                     74                     75
                     A                      A                      A
 Frequencies --   986.9502               989.9745              1001.7415
 Red. masses --     4.1670                 1.3653                 1.3077
 Frc consts  --     2.3915                 0.7884                 0.7732
 IR Inten    --     4.8218                 0.3443                 2.2139

                    76                     77                     78
                     A                      A                      A
 Frequencies --  1058.9151              1064.8841              1105.4586
 Red. masses --     3.7380                 2.9716                 1.1737
 Frc consts  --     2.4695                 1.9854                 0.8451
 IR Inten    --     3.5545                62.1823                 7.3362

                    79                     80                     81
                     A                      A                      A
 Frequencies --  1119.4482              1141.6756              1151.6303
 Red. masses --     2.3958                 1.2642                 1.1259
 Frc consts  --     1.7689                 0.9708                 0.8798
 IR Inten    --    15.2508                 7.1070                 1.1795

                    82                     83                     84
                     A                      A                      A
 Frequencies --  1199.0432              1222.3348              1240.4966
 Red. masses --     1.7243                 2.0280                 2.6324
 Frc consts  --     1.4606                 1.7852                 2.3866
 IR Inten    --    12.3655                46.1528                39.4762

                    85                     86                     87
                     A                      A                      A
 Frequencies --  1261.7431              1268.0539              1284.7470
 Red. masses --     3.9046                 3.0898                 2.2026
 Frc consts  --     3.6624                 2.9273                 2.1420
 IR Inten    --    35.0314                16.9372                 2.8962

                    88                     89                     90
                     A                      A                      A
 Frequencies --  1314.3131              1329.2606              1338.9246
 Red. masses --     2.3806                 2.3917                 2.5514
 Frc consts  --     2.4229                 2.4899                 2.6949
 IR Inten    --    11.3632                20.1457                18.3853

                    91                     92                     93
                     A                      A                      A
 Frequencies --  1351.2555              1358.5983              1369.6780
 Red. masses --     4.3909                 2.8946                10.8400
 Frc consts  --     4.7237                 3.1479                11.9817
 IR Inten    --    24.0070                 2.5887               152.1239

                    94                     95                     96
                     A                      A                      A
 Frequencies --  1376.3369              1380.7206              1436.9064
 Red. masses --     7.8579                 2.2904                 3.5499
 Frc consts  --     8.7702                 2.5726                 4.3185
 IR Inten    --     2.2059                23.1058                26.0447

                    97                     98                     99
                     A                      A                      A
 Frequencies --  1446.1726              1450.9113              1494.7381
 Red. masses --     3.4350                 1.3307                 6.9992
 Frc consts  --     4.2327                 1.6505                 9.2136
 IR Inten    --   587.3653                83.4395               191.3083

                   100                    101                    102
                     A                      A                      A
 Frequencies --  1508.4734              1522.7596              1543.1441
 Red. masses --     8.5490                 6.1550                 4.5445
 Frc consts  --    11.4614                 8.4090                 6.3760
 IR Inten    --    29.8723                47.4686                72.8608

                   103                    104                    105
                     A                      A                      A
 Frequencies --  1549.0947              1564.8969              1594.9015
 Red. masses --     8.5662                 9.4524                 7.3081
 Frc consts  --    12.1114                13.6385                10.9527
 IR Inten    --    34.2532                97.5218                10.5673

                   106                    107                    108
                     A                      A                      A
 Frequencies --  1605.4985              1610.9137              1628.8911
 Red. masses --     6.4295                 7.5691                 9.4327
 Frc consts  --     9.7644                11.5728                14.7459
 IR Inten    --     2.6692                43.8976                15.9751

                   109                    110                    111
                     A                      A                      A
 Frequencies --  2226.0184              2229.6755              3035.3643
 Red. masses --     1.0506                 1.0312                 1.0621
 Frc consts  --     3.0673                 3.0205                 5.7654
 IR Inten    --   132.5547               279.3038                11.1703

                   112                    113                    114
                     A                      A                      A
 Frequencies --  3063.2956              3176.5385              3186.2056
 Red. masses --     1.0993                 1.0873                 1.0899
 Frc consts  --     6.0780                 6.4639                 6.5189
 IR Inten    --     3.9329                 6.3037                42.1091

                   115                    116                    117
                     A                      A                      A
 Frequencies --  3206.7716              3218.6079              3221.4655
 Red. masses --     1.0956                 1.0887                 1.0929
 Frc consts  --     6.6381                 6.6448                 6.6826
 IR Inten    --     8.0076                 1.9874                16.4895

                   118                    119                    120
                     A                      A                      A
 Frequencies --  3230.8516              3244.1327              3246.0619
 Red. masses --     1.0949                 1.1011                 1.0941
 Frc consts  --     6.7337                 6.8278                 6.7926
 IR Inten    --     3.7536                 7.6753                 0.3529

 - Thermochemistry -
 -------------------
 Temperature   298.150 Kelvin.  Pressure   1.00000 Atm.
 Atom     1 has atomic number  6 and mass  12.00000

 Molecular mass:   475.97141 amu.
 Principal axes and moments of inertia in atomic units:
                           1         2         3
     Eigenvalues --  5013.65224********************
           X            0.99997   0.00706   0.00157
           Y           -0.00705   0.99995  -0.00673
           Z           -0.00161   0.00672   0.99998
 This molecule is an asymmetric top.
 Rotational symmetry number  1.
 Warning -- assumption of classical behavior for rotation
           may cause significant error
 Rotational temperatures (Kelvin)      0.01728     0.00203     0.00188
 Rotational constants (GHZ):           0.35997     0.04229     0.03917
 Zero-point vibrational energy     729136.7 (Joules/Mol)
                                  174.26784 (Kcal/Mol)
 Warning -- explicit consideration of  41 degrees of freedom as
           vibrations may cause significant error
 Vibrational temperatures:     13.54    24.41    41.60    47.25    67.13
          (Kelvin)             81.23    86.80   129.15   145.72   198.03
                              215.05   221.28   248.74   270.35   277.50
                              294.99   328.58   361.69   376.46   395.93
                              441.15   489.69   498.96   531.57   548.75
                              558.66   629.09   653.33   663.37   680.32
                              700.42   706.69   725.68   729.73   761.77
                              784.12   806.18   836.11   867.48   869.35
                              886.58   895.75   922.83   943.07   971.23
                              982.96  1037.20  1048.64  1052.93  1064.82
                             1082.96  1088.61  1106.90  1130.92  1139.94
                             1147.85  1176.11  1186.41  1194.44  1195.20
                             1202.81  1236.52  1243.83  1248.55  1275.01
                             1302.35  1343.21  1360.47  1368.82  1370.91
                             1387.88  1401.05  1420.00  1424.35  1441.28
                             1523.54  1532.13  1590.51  1610.63  1642.61
                             1656.94  1725.15  1758.66  1784.80  1815.36
                             1824.44  1848.46  1891.00  1912.51  1926.41
                             1944.15  1954.72  1970.66  1980.24  1986.55
                             2067.39  2080.72  2087.54  2150.59  2170.35
                             2190.91  2220.24  2228.80  2251.53  2294.70
                             2309.95  2317.74  2343.61  3202.74  3208.00
                             4367.21  4407.39  4570.32  4584.23  4613.82
                             4630.85  4634.96  4648.47  4667.58  4670.35

 Zero-point correction=                           0.277713 (Hartree/Particle)
 Thermal correction to Energy=                    0.302533
 Thermal correction to Enthalpy=                  0.303477
 Thermal correction to Gibbs Free Energy=         0.219149
 Sum of electronic and zero-point Energies=          -2908.418593
 Sum of electronic and thermal Energies=             -2908.393774
 Sum of electronic and thermal Enthalpies=           -2908.392830
 Sum of electronic and thermal Free Energies=        -2908.477158

                     E (Thermal)             CV                S
                      KCal/Mol        Cal/Mol-Kelvin    Cal/Mol-Kelvin
 Total                  189.842             97.114            177.482
 Electronic               0.000              0.000              0.000
 Translational            0.889              2.981             44.369
 Rotational               0.889              2.981             37.531
 Vibrational            188.065             91.153             95.583
 Vibration     1          0.593              1.987              8.132
 Vibration     2          0.593              1.986              6.961
 Vibration     3          0.593              1.984              5.903
 Vibration     4          0.594              1.983              5.650
 Vibration     5          0.595              1.979              4.954
 Vibration     6          0.596              1.975              4.577
 Vibration     7          0.597              1.973              4.446
 Vibration     8          0.602              1.956              3.665
 Vibration     9          0.604              1.948              3.429
 Vibration    10          0.614              1.916              2.836
 Vibration    11          0.618              1.903              2.679
 Vibration    12          0.619              1.898              2.625
 Vibration    13          0.626              1.876              2.404
 Vibration    14          0.633              1.856              2.248
 Vibration    15          0.635              1.850              2.200
 Vibration    16          0.640              1.833              2.088
 Vibration    17          0.651              1.798              1.892
 Vibration    18          0.663              1.760              1.721
 Vibration    19          0.669              1.743              1.651
 Vibration    20          0.677              1.719              1.563
 Vibration    21          0.697              1.661              1.381
 Vibration    22          0.720              1.595              1.210
 Vibration    23          0.725              1.582              1.181
 Vibration    24          0.742              1.535              1.082
 Vibration    25          0.751              1.510              1.034
 Vibration    26          0.756              1.495              1.007
 Vibration    27          0.798              1.389              0.835
 Vibration    28          0.813              1.352              0.784
 Vibration    29          0.819              1.336              0.763
 Vibration    30          0.830              1.310              0.730
 Vibration    31          0.843              1.279              0.692
 Vibration    32          0.847              1.270              0.681
 Vibration    33          0.860              1.240              0.647
 Vibration    34          0.862              1.234              0.640
 Vibration    35          0.884              1.185              0.588
 Vibration    36          0.900              1.151              0.555
 Vibration    37          0.916              1.117              0.523
 Vibration    38          0.938              1.072              0.483
 Vibration    39          0.961              1.026              0.445
 Vibration    40          0.963              1.023              0.442
 Vibration    41          0.976              0.998              0.423

 Normal termination of Gaussian 09 at Mon Dec 30 11:55:53 2013.
