 Gaussian 09, Revision C.01,
 Gaussian 09:  EM64L-G09RevC.01 23-Sep-2011

 --------------------------------------------
 #B3LYP/6-31++G(d,p) opt scf=direct freq test
 --------------------------------------------

 Geom opt of No.76 candidate from the CEPDB database with SMILE code of
  [SiH2]1ccc2c1csc2-c1sc(-c2sc(c3[SiH2]ccc23)-c2ncncn2)c2nccnc12, HPC,
 20131227, Shuo Dai, Gaussian09
 ----------------------------------------------------------------------
 Charge =  0 Multiplicity = 1

 SCF Done:  E(RB3LYP) =  -2855.30401265     A.U. after   17 cycles
 SCF Done:  E(RB3LYP) =  -2855.34928000     A.U. after   14 cycles
 SCF Done:  E(RB3LYP) =  -2855.36190521     A.U. after   18 cycles
 SCF Done:  E(RB3LYP) =  -2855.36933130     A.U. after   17 cycles
 SCF Done:  E(RB3LYP) =  -2855.37146191     A.U. after   15 cycles
 SCF Done:  E(RB3LYP) =  -2855.37401291     A.U. after   13 cycles
 SCF Done:  E(RB3LYP) =  -2855.37438724     A.U. after   12 cycles
 SCF Done:  E(RB3LYP) =  -2855.37439592     A.U. after   11 cycles
 SCF Done:  E(RB3LYP) =  -2855.37440106     A.U. after   11 cycles
 SCF Done:  E(RB3LYP) =  -2855.37441219     A.U. after   12 cycles
 SCF Done:  E(RB3LYP) =  -2855.37703286     A.U. after   13 cycles
 SCF Done:  E(RB3LYP) =  -2855.37722820     A.U. after   14 cycles
 SCF Done:  E(RB3LYP) =  -2855.37736629     A.U. after   14 cycles
 SCF Done:  E(RB3LYP) =  -2855.37737873     A.U. after   13 cycles
 SCF Done:  E(RB3LYP) =  -2855.37738083     A.U. after   13 cycles
 SCF Done:  E(RB3LYP) =  -2855.37738131     A.U. after   12 cycles
 SCF Done:  E(RB3LYP) =  -2855.37738138     A.U. after   11 cycles
 SCF Done:  E(RB3LYP) =  -2855.37738138     A.U. after   11 cycles
 SCF Done:  E(RB3LYP) =  -2855.37738138     A.U. after   10 cycles
 Optimization completed.
    -- Stationary point found.
 Normal termination of Gaussian 09 at Mon Dec 30 02:59:47 2013.

 ----------------------------------------------------------------------
 #N Geom=AllCheck Guess=TCheck SCRF=Check Test GenChk RB3LYP/6-31++G(d,
 p) Freq
 ----------------------------------------------------------------------

 Geom opt of No.76 candidate from the CEPDB database with SMILE code of
  [SiH2]1ccc2c1csc2-c1sc(-c2sc(c3[SiH2]ccc23)-c2ncncn2)c2nccnc12, HPC,
 20131227, Shuo Dai, Gaussian09
 ----------------------------------------------------------------------
 Charge =  0 Multiplicity = 1

                         Standard orientation:
 ---------------------------------------------------------------------
 Center     Atomic      Atomic             Coordinates (Angstroms)
 Number     Number       Type             X           Y           Z
 ---------------------------------------------------------------------
      1         14           0       -7.628947   -0.041633    0.734033
      2          1           0       -8.292004   -0.934015    1.720698
      3          1           0       -8.667816    0.469483   -0.198239
      4          6           0       -6.539003    1.286835    1.493240
      5          6           0       -5.253351    1.114162    1.098327
      6          6           0       -4.988006   -0.020902    0.205562
      7          6           0       -6.147767   -0.823245   -0.121250
      8          6           0       -5.833037   -1.900197   -0.896369
      9         16           0       -4.134859   -1.970025   -1.271021
     10          6           0       -3.807697   -0.504583   -0.338316
     11          6           0       -2.455354   -0.002684   -0.237665
     12         16           0       -1.107993   -1.097656   -0.096405
     13          6           0        0.113793    0.148089   -0.081255
     14          6           0        1.525321   -0.129422    0.003454
     15         16           0        2.693790    1.193664   -0.106414
     16          6           0        4.033293    0.075596    0.046933
     17          6           0        3.614777   -1.225212    0.180881
     18         14           0        4.380524   -2.924748    0.394320
     19          1           0        5.145204   -3.103723    1.652414
     20          1           0        5.196269   -3.382000   -0.756794
     21          6           0        2.660382   -3.699217    0.450865
     22          6           0        1.711444   -2.738654    0.318276
     23          6           0        2.190733   -1.353853    0.160678
     24          6           0        5.407748    0.542612    0.033023
     25          7           0        6.381613   -0.387646    0.153649
     26          6           0        7.622594    0.091780    0.134416
     27          7           0        7.970734    1.380029    0.009599
     28          6           0        6.927239    2.212317   -0.102591
     29          7           0        5.642019    1.864833   -0.098709
     30          6           0       -0.531975    1.394442   -0.173360
     31          7           0        0.110757    2.594474   -0.196060
     32          6           0       -0.653686    3.654000   -0.324607
     33          6           0       -2.081186    3.570585   -0.440622
     34          7           0       -2.737012    2.433679   -0.410456
     35          6           0       -1.971462    1.312372   -0.264804
     36          1           0       -6.818174    2.102363    2.153050
     37          1           0       -4.442231    1.768921    1.398771
     38          1           0       -6.485178   -2.672117   -1.284838
     39          1           0        2.378354   -4.740474    0.574890
     40          1           0        0.651240   -2.971188    0.332832
     41          1           0        8.431087   -0.630056    0.229102
     42          1           0        7.150139    3.271993   -0.206885
     43          1           0       -0.165304    4.626225   -0.344147
     44          1           0       -2.664259    4.481674   -0.561415
 ---------------------------------------------------------------------

 SCF Done:  E(RB3LYP) =  -2855.37738138     A.U. after    2 cycles

 The electronic state is 1-A.
 Alpha  occ. eigenvalues --  -88.95024 -88.92827 -88.92491 -66.14325 -66.14076
 Alpha  occ. eigenvalues --  -14.37416 -14.37349 -14.36446 -14.36256 -14.35971
 Alpha  occ. eigenvalues --  -10.29756 -10.28453 -10.28394 -10.25952 -10.25945
 Alpha  occ. eigenvalues --  -10.25693 -10.25631 -10.25614 -10.25598 -10.25536
 Alpha  occ. eigenvalues --  -10.24994 -10.23848 -10.23683 -10.22149 -10.22025
 Alpha  occ. eigenvalues --  -10.21886 -10.21567 -10.19893 -10.19797 -10.19142
 Alpha  occ. eigenvalues --  -10.19089  -8.00854  -7.98731  -7.98194  -5.97271
 Alpha  occ. eigenvalues --   -5.96888  -5.96605  -5.95171  -5.94781  -5.94654
 Alpha  occ. eigenvalues --   -5.94430  -5.94249  -5.93887  -5.29070  -5.28756
 Alpha  occ. eigenvalues --   -3.64972  -3.64899  -3.64896  -3.64668  -3.64595
 Alpha  occ. eigenvalues --   -3.64575  -1.03844  -1.00544  -0.93709  -0.92416
 Alpha  occ. eigenvalues --   -0.91693  -0.91574  -0.89914  -0.88654  -0.81448
 Alpha  occ. eigenvalues --   -0.81253  -0.80168  -0.78126  -0.76122  -0.72823
 Alpha  occ. eigenvalues --   -0.72292  -0.71987  -0.69523  -0.69112  -0.68571
 Alpha  occ. eigenvalues --   -0.64781  -0.63541  -0.61267  -0.60937  -0.58283
 Alpha  occ. eigenvalues --   -0.57318  -0.56624  -0.55830  -0.55286  -0.53635
 Alpha  occ. eigenvalues --   -0.53161  -0.52235  -0.50653  -0.49712  -0.49276
 Alpha  occ. eigenvalues --   -0.47750  -0.46908  -0.46728  -0.46106  -0.44434
 Alpha  occ. eigenvalues --   -0.43459  -0.43350  -0.43049  -0.42590  -0.42101
 Alpha  occ. eigenvalues --   -0.41569  -0.40885  -0.40033  -0.39752  -0.39452
 Alpha  occ. eigenvalues --   -0.38663  -0.38269  -0.37309  -0.36590  -0.36141
 Alpha  occ. eigenvalues --   -0.36027  -0.35721  -0.34575  -0.34521  -0.34088
 Alpha  occ. eigenvalues --   -0.34014  -0.33200  -0.31665  -0.31547  -0.31194
 Alpha  occ. eigenvalues --   -0.30812  -0.29006  -0.28488  -0.28273  -0.27981
 Alpha  occ. eigenvalues --   -0.26738  -0.25967  -0.24670  -0.23953  -0.20355
 Alpha virt. eigenvalues --   -0.11843  -0.08423  -0.06412  -0.06089  -0.05259
 Alpha virt. eigenvalues --   -0.03744  -0.02024  -0.01234  -0.01018  -0.00686
 Alpha virt. eigenvalues --   -0.00409  -0.00194  -0.00039   0.00411   0.00756

 Mulliken atomic charges:
              1
     1  Si   0.851575
     2  H   -0.100166
     3  H   -0.103988
     4  C   -0.438218
     5  C   -0.066659
     6  C   -0.286457
     7  C   -0.343174
     8  C   -0.102445
     9  S    0.105186
    10  C    0.123911
    11  C    0.030835
    12  S   -0.310739
    13  C    0.174227
    14  C   -0.484598
    15  S    0.323652
    16  C   -1.264856
    17  C   -0.371990
    18  Si   1.020862
    19  H   -0.099513
    20  H   -0.100606
    21  C   -0.507529
    22  C    0.034435
    23  C    1.228545
    24  C   -0.147247
    25  N   -0.143592
    26  C    0.258342
    27  N   -0.253013
    28  C    0.187052
    29  N   -0.124237
    30  C   -0.117646
    31  N   -0.100270
    32  C    0.238401
    33  C   -0.000754
    34  N   -0.146462
    35  C   -0.208833
    36  H    0.129097
    37  H    0.109000
    38  H    0.184654
    39  H    0.170665
    40  H    0.016924
    41  H    0.161456
    42  H    0.160186
    43  H    0.161793
    44  H    0.152193
 Sum of Mulliken atomic charges =  -0.00000

 Dipole moment (field-independent basis, Debye):
    X=             -2.6071    Y=             -0.0526    Z=              0.2674  Tot=              2.6213
 Quadrupole moment (field-independent basis, Debye-Ang):
   XX=           -217.0105   YY=           -195.4571   ZZ=           -217.5155
   XY=             -4.3555   XZ=             -0.7002   YZ=              2.1427

  Exact polarizability: 900.199 -23.494 446.940  -7.865   3.326 218.968
 Approx polarizability:1296.416 -55.967 837.992  -9.702  13.033 376.500

                     1                      2                      3
                     A                      A                      A
 Frequencies --     4.8034                18.7448                35.5164
 Red. masses --     7.3905                 8.3538                 7.3871
 Frc consts  --     0.0001                 0.0017                 0.0055
 IR Inten    --     0.1141                 0.0829                 0.0566

                     4                      5                      6
                     A                      A                      A
 Frequencies --    40.5867                56.4940                60.6108
 Red. masses --     8.6544                 6.6305                 5.8256
 Frc consts  --     0.0084                 0.0125                 0.0126
 IR Inten    --     0.1577                 0.1135                 0.0311

                     7                      8                      9
                     A                      A                      A
 Frequencies --    65.6242                82.5265                97.0207
 Red. masses --     7.8789                 6.0264                 6.2531
 Frc consts  --     0.0200                 0.0242                 0.0347
 IR Inten    --     0.0073                 0.0721                 0.1457

                    10                     11                     12
                     A                      A                      A
 Frequencies --   121.1250               139.6862               145.6205
 Red. masses --     4.7883                 5.2344                 7.5550
 Frc consts  --     0.0414                 0.0602                 0.0944
 IR Inten    --     0.1008                 0.0694                 0.2753

                    13                     14                     15
                     A                      A                      A
 Frequencies --   164.4972               170.2864               174.3103
 Red. masses --    10.4247                 7.1458                 6.3177
 Frc consts  --     0.1662                 0.1221                 0.1131
 IR Inten    --     0.0187                 1.0826                 0.2566

                    16                     17                     18
                     A                      A                      A
 Frequencies --   183.7473               189.3939               207.5470
 Red. masses --     6.7980                 5.9553                 6.9983
 Frc consts  --     0.1352                 0.1259                 0.1776
 IR Inten    --     1.7726                 1.3619                 0.9769

                    19                     20                     21
                     A                      A                      A
 Frequencies --   245.8176               264.6262               282.3850
 Red. masses --     5.4907                 7.7999                 3.8647
 Frc consts  --     0.1955                 0.3218                 0.1816
 IR Inten    --     2.6005                 0.8707                 0.9508

                    22                     23                     24
                     A                      A                      A
 Frequencies --   301.3364               331.0804               352.8924
 Red. masses --     8.2933                 3.9852                 6.2972
 Frc consts  --     0.4437                 0.2574                 0.4620
 IR Inten    --     2.9720                 1.2991                 2.7926

                    25                     26                     27
                     A                      A                      A
 Frequencies --   360.6437               363.2285               372.3476
 Red. masses --     3.5268                 5.5640                 2.7282
 Frc consts  --     0.2703                 0.4325                 0.2229
 IR Inten    --     0.0374                 2.0898                 2.9738

                    28                     29                     30
                     A                      A                      A
 Frequencies --   403.6125               433.8978               435.8245
 Red. masses --     3.9200                13.0075                 8.9092
 Frc consts  --     0.3762                 1.4428                 0.9970
 IR Inten    --     2.9122                 3.7812                 8.3564

                    31                     32                     33
                     A                      A                      A
 Frequencies --   457.7612               466.4549               476.8305
 Red. masses --     8.1580                11.3722                 8.6085
 Frc consts  --     1.0072                 1.4578                 1.1532
 IR Inten    --    10.1123                35.5739                27.5015

                    34                     35                     36
                     A                      A                      A
 Frequencies --   483.7171               487.7987               493.3369
 Red. masses --    13.2717                 5.6583                 7.0626
 Frc consts  --     1.8296                 0.7933                 1.0127
 IR Inten    --     2.2889                11.8139                22.0318

                    37                     38                     39
                     A                      A                      A
 Frequencies --   505.7827               531.8260               571.5756
 Red. masses --     5.0106                 9.7640                 2.9040
 Frc consts  --     0.7552                 1.6271                 0.5590
 IR Inten    --     7.9522                20.2770                 5.1409

                    40                     41                     42
                     A                      A                      A
 Frequencies --   580.7094               586.6265               601.5654
 Red. masses --     2.6174                 2.1639                 2.0038
 Frc consts  --     0.5200                 0.4388                 0.4272
 IR Inten    --     2.6169                 5.5347                 0.2561

                    43                     44                     45
                     A                      A                      A
 Frequencies --   613.5739               622.7281               625.3639
 Red. masses --     1.9773                 1.8785                 9.1515
 Frc consts  --     0.4386                 0.4292                 2.1087
 IR Inten    --     2.9326                37.0769                20.9490

                    46                     47                     48
                     A                      A                      A
 Frequencies --   637.8612               640.2171               665.6522
 Red. masses --     3.0483                 9.6682                 8.8147
 Frc consts  --     0.7307                 2.3348                 2.3012
 IR Inten    --    32.1296                22.9143                 0.1059

                    49                     50                     51
                     A                      A                      A
 Frequencies --   697.5740               704.7761               719.1642
 Red. masses --     6.9968                 9.0251                 2.0478
 Frc consts  --     2.0060                 2.6412                 0.6240
 IR Inten    --     8.9207                12.9935                53.6901

                    52                     53                     54
                     A                      A                      A
 Frequencies --   722.1775               725.1765               734.0833
 Red. masses --     1.5212                 1.7001                 1.5969
 Frc consts  --     0.4674                 0.5268                 0.5070
 IR Inten    --    13.5394                 4.5404                 7.0692

                    55                     56                     57
                     A                      A                      A
 Frequencies --   742.2158               770.7194               783.6620
 Red. masses --     3.9189                 5.6039                 1.3806
 Frc consts  --     1.2720                 1.9613                 0.4996
 IR Inten    --     3.6546                 7.4232                 8.2206

                    58                     59                     60
                     A                      A                      A
 Frequencies --   787.4091               792.8879               799.4153
 Red. masses --     2.0927                 1.9695                 7.0125
 Frc consts  --     0.7645                 0.7295                 2.6404
 IR Inten    --    38.4442                63.1891                 3.9436

                    61                     62                     63
                     A                      A                      A
 Frequencies --   817.6118               828.7375               840.7874
 Red. masses --     3.4305                 5.5455                 8.1214
 Frc consts  --     1.3512                 2.2440                 3.3826
 IR Inten    --    62.5600                11.2341                16.1840

                    64                     65                     66
                     A                      A                      A
 Frequencies --   860.5998               864.9067               875.4087
 Red. masses --     2.3400                 5.8613                 1.2700
 Frc consts  --     1.0211                 2.5833                 0.5734
 IR Inten    --    93.0891                 5.3813                16.8459

                    67                     68                     69
                     A                      A                      A
 Frequencies --   885.0493               888.2666               952.9295
 Red. masses --     6.1992                 4.3252                 1.6856
 Frc consts  --     2.8610                 2.0107                 0.9018
 IR Inten    --    70.4812                22.0427               221.3490

                    70                     71                     72
                     A                      A                      A
 Frequencies --   955.8610               971.4315               975.4768
 Red. masses --     2.0503                 1.8658                 1.4823
 Frc consts  --     1.1037                 1.0374                 0.8311
 IR Inten    --    32.5640               135.7353                31.6078

                    73                     74                     75
                     A                      A                      A
 Frequencies --   976.1407               977.0549               985.4102
 Red. masses --     1.7118                 1.5572                 1.2969
 Frc consts  --     0.9610                 0.8758                 0.7420
 IR Inten    --   142.2018                 1.2392                 0.1125

                    76                     77                     78
                     A                      A                      A
 Frequencies --   988.0225               998.0507              1000.9468
 Red. masses --     1.3232                 7.7735                 5.7581
 Frc consts  --     0.7610                 4.5622                 3.3990
 IR Inten    --     0.1818                54.9119                 5.6424

                    79                     80                     81
                     A                      A                      A
 Frequencies --  1009.2038              1036.0285              1051.1968
 Red. masses --     8.8996                 1.4705                 3.4851
 Frc consts  --     5.3405                 0.9299                 2.2690
 IR Inten    --    36.5868                 0.0017                24.3399

                    82                     83                     84
                     A                      A                      A
 Frequencies --  1063.5063              1110.1300              1133.1466
 Red. masses --     4.0966                 1.2108                 1.3209
 Frc consts  --     2.7300                 0.8791                 0.9993
 IR Inten    --     9.8994                 8.3822                 1.3078

                    85                     86                     87
                     A                      A                      A
 Frequencies --  1148.0987              1177.4726              1203.6346
 Red. masses --     3.6118                 3.0363                 3.8043
 Frc consts  --     2.8050                 2.4802                 3.2472
 IR Inten    --     1.1910                 5.5160                16.7711

                    88                     89                     90
                     A                      A                      A
 Frequencies --  1208.2351              1242.4507              1289.4946
 Red. masses --     2.3842                 3.7027                 2.8717
 Frc consts  --     2.0507                 3.3677                 2.8134
 IR Inten    --     4.4386                32.4729                 7.6344

                    91                     92                     93
                     A                      A                      A
 Frequencies --  1290.5301              1318.0047              1332.8399
 Red. masses --     3.3186                 3.8110                 2.6323
 Frc consts  --     3.2564                 3.9006                 2.7551
 IR Inten    --     3.7414                49.6410                30.8058

                    94                     95                     96
                     A                      A                      A
 Frequencies --  1345.8781              1353.4411              1359.9852
 Red. masses --     2.4738                 2.3109                 2.6979
 Frc consts  --     2.6402                 2.4941                 2.9400
 IR Inten    --     8.4505                 3.8220               122.6869

                    97                     98                     99
                     A                      A                      A
 Frequencies --  1369.4542              1384.4034              1416.3442
 Red. masses --     3.1318                 2.5612                 2.4922
 Frc consts  --     3.4605                 2.8921                 2.9456
 IR Inten    --     1.6043                20.2827                 2.2278

                   100                    101                    102
                     A                      A                      A
 Frequencies --  1425.5360              1451.7906              1457.4308
 Red. masses --     1.5633                 4.6838                 3.3514
 Frc consts  --     1.8718                 5.8164                 4.1942
 IR Inten    --    23.2971                70.5946               833.6034

                   103                    104                    105
                     A                      A                      A
 Frequencies --  1481.5899              1507.1890              1523.9601
 Red. masses --     6.8948                 7.9449                10.6853
 Frc consts  --     8.9172                10.6334                14.6213
 IR Inten    --   243.7110                 8.3225                61.1578

                   106                    107                    108
                     A                      A                      A
 Frequencies --  1540.4929              1552.8782              1554.7888
 Red. masses --     5.7754                 8.1252                 8.8948
 Frc consts  --     8.0752                11.5440                12.6686
 IR Inten    --    36.8925               300.0605                93.4918

                   109                    110                    111
                     A                      A                      A
 Frequencies --  1570.9897              1585.5989              1588.2563
 Red. masses --     6.8040                 8.7571                 6.8829
 Frc consts  --     9.8937                12.9717                10.2297
 IR Inten    --   106.1539               475.3886                 1.9913

                   112                    113                    114
                     A                      A                      A
 Frequencies --  1608.8018              1608.8408              2225.5068
 Red. masses --     5.6529                 6.4028                 1.0502
 Frc consts  --     8.6203                 9.7645                 3.0646
 IR Inten    --   612.0911                22.0908               143.3408

                   115                    116                    117
                     A                      A                      A
 Frequencies --  2229.4156              2244.3243              2246.4742
 Red. masses --     1.0316                 1.0322                 1.0499
 Frc consts  --     3.0209                 3.0632                 3.1219
 IR Inten    --   316.1293               181.5781               114.9570

                   118                    119                    120
                     A                      A                      A
 Frequencies --  3164.6281              3180.6111              3184.0860
 Red. masses --     1.0884                 1.0945                 1.0902
 Frc consts  --     6.4222                 6.5236                 6.5124
 IR Inten    --    10.2134                40.0056                23.9040

                   121                    122                    123
                     A                      A                      A
 Frequencies --  3187.5679              3189.9666              3198.1639
 Red. masses --     1.0937                 1.0849                 1.0863
 Frc consts  --     6.5473                 6.5045                 6.5462
 IR Inten    --    40.8877                 0.7449                 0.8043

                   124                    125                    126
                     A                      A                      A
 Frequencies --  3209.2103              3219.4823              3246.8698
 Red. masses --     1.0968                 1.0968                 1.0941
 Frc consts  --     6.6553                 6.6978                 6.7960
 IR Inten    --    10.4089                 8.2642                 1.2159

 - Thermochemistry -
 -------------------
 Temperature   298.150 Kelvin.  Pressure   1.00000 Atm.
 Atom     1 has atomic number 14 and mass  27.97693

 Molecular mass:   486.98717 amu.
 Principal axes and moments of inertia in atomic units:
                           1         2         3
     Eigenvalues --  6360.68437********************
           X            0.99999  -0.00505  -0.00171
           Y            0.00505   0.99999  -0.00160
           Z            0.00172   0.00159   1.00000
 This molecule is an asymmetric top.
 Rotational symmetry number  1.
 Warning -- assumption of classical behavior for rotation
           may cause significant error
 Rotational temperatures (Kelvin)      0.01362     0.00239     0.00209
 Rotational constants (GHZ):           0.28373     0.04988     0.04355
 Zero-point vibrational energy     758462.9 (Joules/Mol)
                                  181.27699 (Kcal/Mol)
 Warning -- explicit consideration of  43 degrees of freedom as
           vibrations may cause significant error
 Vibrational temperatures:      6.91    26.97    51.10    58.40    81.28
          (Kelvin)             87.21    94.42   118.74   139.59   174.27
                              200.98   209.52   236.67   245.00   250.79
                              264.37   272.50   298.61   353.68   380.74
                              406.29   433.56   476.35   507.73   518.89
                              522.60   535.72   580.71   624.28   627.05
                              658.62   671.12   686.05   695.96   701.83
                              709.80   727.71   765.18   822.37   835.51
                              844.02   865.52   882.79   895.97   899.76
                              917.74   921.13   957.72  1003.65  1014.01
                             1034.72  1039.05  1043.37  1056.18  1067.88
                             1108.89  1127.51  1132.90  1140.79  1150.18
                             1176.36  1192.37  1209.70  1238.21  1244.41
                             1259.52  1273.39  1278.02  1371.05  1375.27
                             1397.67  1403.49  1404.45  1405.76  1417.78
                             1421.54  1435.97  1440.14  1452.02  1490.61
                             1512.44  1530.15  1597.23  1630.34  1651.86
                             1694.12  1731.76  1738.38  1787.61  1855.29
                             1856.78  1896.31  1917.66  1936.42  1947.30
                             1956.71  1970.34  1991.85  2037.80  2051.03
                             2088.80  2096.92  2131.67  2168.51  2192.64
                             2216.42  2234.24  2236.99  2260.30  2281.32
                             2285.14  2314.70  2314.76  3202.00  3207.63
                             3229.08  3232.17  4553.19  4576.18  4581.18
                             4586.19  4589.64  4601.44  4617.33  4632.11
                             4671.52

 Zero-point correction=                           0.288883 (Hartree/Particle)
 Thermal correction to Energy=                    0.315088
 Thermal correction to Enthalpy=                  0.316032
 Thermal correction to Gibbs Free Energy=         0.229098
 Sum of electronic and zero-point Energies=          -2855.088498
 Sum of electronic and thermal Energies=             -2855.062294
 Sum of electronic and thermal Enthalpies=           -2855.061349
 Sum of electronic and thermal Free Energies=        -2855.148284

                     E (Thermal)             CV                S
                      KCal/Mol        Cal/Mol-Kelvin    Cal/Mol-Kelvin
 Total                  197.721            102.417            182.969
 Electronic               0.000              0.000              0.000
 Translational            0.889              2.981             44.437
 Rotational               0.889              2.981             37.498
 Vibrational            195.943             96.455            101.034
 Vibration     1          0.593              1.987              9.468
 Vibration     2          0.593              1.986              6.763
 Vibration     3          0.594              1.982              5.495
 Vibration     4          0.594              1.981              5.230
 Vibration     5          0.596              1.975              4.576
 Vibration     6          0.597              1.973              4.437
 Vibration     7          0.597              1.971              4.280
 Vibration     8          0.600              1.961              3.830
 Vibration     9          0.603              1.951              3.513
 Vibration    10          0.609              1.932              3.082
 Vibration    11          0.615              1.914              2.808
 Vibration    12          0.617              1.907              2.729
 Vibration    13          0.623              1.886              2.497
 Vibration    14          0.625              1.879              2.432
 Vibration    15          0.627              1.874              2.388
 Vibration    16          0.631              1.862              2.290
 Vibration    17          0.633              1.854              2.234
 Vibration    18          0.641              1.829              2.065
 Vibration    19          0.660              1.770              1.760
 Vibration    20          0.671              1.738              1.631
 Vibration    21          0.681              1.706              1.519
 Vibration    22          0.693              1.671              1.409
 Vibration    23          0.713              1.613              1.255
 Vibration    24          0.729              1.569              1.153
 Vibration    25          0.735              1.553              1.119
 Vibration    26          0.737              1.548              1.108
 Vibration    27          0.744              1.529              1.070
 Vibration    28          0.769              1.462              0.949
 Vibration    29          0.795              1.396              0.846
 Vibration    30          0.796              1.392              0.840
 Vibration    31          0.816              1.344              0.773
 Vibration    32          0.824              1.324              0.748
 Vibration    33          0.833              1.301              0.719
 Vibration    34          0.840              1.286              0.700
 Vibration    35          0.844              1.277              0.689
 Vibration    36          0.849              1.265              0.675
 Vibration    37          0.861              1.237              0.644
 Vibration    38          0.887              1.180              0.583
 Vibration    39          0.928              1.093              0.501
 Vibration    40          0.937              1.073              0.484
 Vibration    41          0.944              1.060              0.473
 Vibration    42          0.960              1.028              0.447
 Vibration    43          0.973              1.003              0.427

 Optimization completed.
    -- Stationary point found.
 Normal termination of Gaussian 09 at Mon Dec 30 05:12:35 2013.
