 Gaussian 09, Revision C.01,
 Gaussian 09:  EM64L-G09RevC.01 23-Sep-2011

 --------------------------------------------
 #B3LYP/6-31++G(d,p) opt scf=direct freq test
 --------------------------------------------

 Geom opt of No.57 candidate from the CEPDB database with SMILE code of
  C1ccc2csc(c12)-c1ccc(cn1)-c1ncc(-c2scc3ccsc23)c2nsnc12, HPC, 20131227
 , Shuo Dai, Gaussian09
 ----------------------------------------------------------------------
 Charge =  0 Multiplicity = 1

 SCF Done:  E(RB3LYP) =  -2695.38296722     A.U. after   29 cycles
 SCF Done:  E(RB3LYP) =  -2695.41386010     A.U. after   40 cycles
 SCF Done:  E(RB3LYP) =  -2695.42794515     A.U. after   17 cycles
 SCF Done:  E(RB3LYP) =  -2695.43130884     A.U. after   57 cycles
 SCF Done:  E(RB3LYP) =  -2695.43241720     A.U. after   42 cycles
 SCF Done:  E(RB3LYP) =  -2695.43288894     A.U. after   36 cycles
 SCF Done:  E(RB3LYP) =  -2695.43316268     A.U. after   27 cycles
 SCF Done:  E(RB3LYP) =  -2695.43326446     A.U. after   20 cycles
 SCF Done:  E(RB3LYP) =  -2695.43325169     A.U. after   13 cycles
 SCF Done:  E(RB3LYP) =  -2695.43326818     A.U. after   20 cycles
 SCF Done:  E(RB3LYP) =  -2695.43327637     A.U. after   29 cycles
 SCF Done:  E(RB3LYP) =  -2695.43328564     A.U. after   21 cycles
 SCF Done:  E(RB3LYP) =  -2695.43329398     A.U. after   20 cycles
 SCF Done:  E(RB3LYP) =  -2695.43329958     A.U. after   36 cycles
 SCF Done:  E(RB3LYP) =  -2695.43330265     A.U. after   17 cycles
 SCF Done:  E(RB3LYP) =  -2695.43330356     A.U. after   37 cycles
 SCF Done:  E(RB3LYP) =  -2695.43330377     A.U. after   17 cycles
 SCF Done:  E(RB3LYP) =  -2695.43330382     A.U. after   19 cycles
 SCF Done:  E(RB3LYP) =  -2695.43330381     A.U. after   22 cycles
 Optimization completed.
    -- Stationary point found.

 1\1\GINC-N020\FOpt\RB3LYP\6-31++G(d,p)\C23H12N4S4\SHUO\29-Dec-2013\0\\
 #B3LYP/6-31++G(d,p) opt scf=direct freq test\\Geom opt of No.57 candid
 ate from the CEPDB database with SMILE code of C1ccc2csc(c12)-c1ccc(cn
 1)-c1ncc(-c2scc3ccsc23)c2nsnc12, HPC, 20131227, Shuo Dai, Gaussian09\\
 0,1\C,-1.4993513523,1.0797105049,0.330726845\C,-2.332022241,-0.1665760
 323,0.5854621968\C,-1.57418149,-1.2842916278,0.5802694228\C,-0.1812489
 727,-0.9169094355,0.3275227099\C,1.0367488883,-1.5368140546,0.20199089
 1\S,2.2977995591,-0.3849148812,-0.1085166118\C,1.1653454646,0.96868701

 Normal termination of Gaussian 09 at Sun Dec 29 17:34:26 2013.

 ----------------------------------------------------------------------
 #N Geom=AllCheck Guess=TCheck SCRF=Check Test GenChk RB3LYP/6-31++G(d,
 p) Freq
 ----------------------------------------------------------------------

 Geom opt of No.57 candidate from the CEPDB database with SMILE code of
  C1ccc2csc(c12)-c1ccc(cn1)-c1ncc(-c2scc3ccsc23)c2nsnc12, HPC, 20131227
 , Shuo Dai, Gaussian09
 ----------------------------------------------------------------------
 Charge =  0 Multiplicity = 1

                         Standard orientation:
 ---------------------------------------------------------------------
 Center     Atomic      Atomic             Coordinates (Angstroms)
 Number     Number       Type             X           Y           Z
 ---------------------------------------------------------------------
      1          6           0        6.665045    2.191363    0.441100
      2          6           0        8.173376    2.364648    0.520918
      3          6           0        8.821019    1.190486    0.361108
      4          6           0        7.838768    0.125548    0.160600
      5          6           0        7.824387   -1.230257   -0.051870
      6         16           0        6.200232   -1.824388   -0.202413
      7          6           0        5.516282   -0.213009    0.025266
      8          6           0        6.528210    0.703928    0.204514
      9          6           0        4.067363   -0.053661   -0.001569
     10          6           0        3.437766    1.197146    0.172636
     11          6           0        2.056278    1.269044    0.134766
     12          6           0        1.291266    0.103744   -0.073801
     13          6           0        2.014112   -1.096612   -0.236720
     14          7           0        3.344142   -1.174669   -0.203483
     15          6           0       -0.180491    0.198839   -0.117575
     16          7           0       -0.712367    1.410583   -0.027864
     17          6           0       -2.050165    1.617602   -0.051773
     18          6           0       -3.032084    0.642554   -0.188897
     19          6           0       -4.451674    0.969135   -0.232625
     20         16           0       -4.952526    2.518179   -0.906176
     21          6           0       -6.615253    2.265459   -0.526587
     22          6           0       -6.806770    1.045237    0.083810
     23          6           0       -7.941543    0.349560    0.643464
     24          6           0       -7.584504   -0.837194    1.193643
     25         16           0       -5.869316   -1.226007    1.048543
     26          6           0       -5.576927    0.304419    0.230079
     27          6           0       -2.515157   -0.689978   -0.292809
     28          7           0       -3.233461   -1.806987   -0.451335
     29         16           0       -2.166861   -3.050438   -0.520281
     30          7           0       -0.761959   -2.220315   -0.363704
     31          6           0       -1.081981   -0.924793   -0.249812
     32          1           0        6.232783    2.791124   -0.372591
     33          1           0        6.172286    2.519879    1.367340
     34          1           0        8.642480    3.328010    0.687500
     35          1           0        9.895811    1.051011    0.377161
     36          1           0        8.657774   -1.915928   -0.129585
     37          1           0        4.022462    2.094090    0.335556
     38          1           0        1.544940    2.215849    0.264397
     39          1           0        1.493889   -2.031988   -0.402627
     40          1           0       -2.346494    2.657298    0.060591
     41          1           0       -7.349106    3.019736   -0.774980
     42          1           0       -8.955944    0.730050    0.632750
     43          1           0       -8.233781   -1.556195    1.677213
 ---------------------------------------------------------------------

 SCF Done:  E(RB3LYP) =  -2695.43330381     A.U. after    5 cycles

 The electronic state is 1-A.
 Alpha  occ. eigenvalues --  -88.99797 -88.93222 -88.91784 -88.91210 -14.39589
 Alpha  occ. eigenvalues --  -14.39140 -14.35565 -14.33997 -10.26853 -10.26685
 Alpha  occ. eigenvalues --  -10.26601 -10.24949 -10.24792 -10.24471 -10.24008
 Alpha  occ. eigenvalues --  -10.23992 -10.23436 -10.23283 -10.23073 -10.22704
 Alpha  occ. eigenvalues --  -10.22006 -10.21978 -10.21745 -10.21382 -10.21314
 Alpha  occ. eigenvalues --  -10.21071 -10.20837 -10.20649 -10.20441 -10.20360
 Alpha  occ. eigenvalues --  -10.20189  -8.05076  -7.99092  -7.97619  -7.96998
 Alpha  occ. eigenvalues --   -6.01635  -6.01048  -6.00841  -5.95528  -5.95136
 Alpha  occ. eigenvalues --   -5.94810  -5.94097  -5.93721  -5.93442  -5.93232
 Alpha  occ. eigenvalues --   -5.93044  -5.92714  -1.04318  -0.96654  -0.95382
 Alpha  occ. eigenvalues --   -0.92147  -0.91167  -0.89846  -0.85693  -0.83596
 Alpha  occ. eigenvalues --   -0.82970  -0.81865  -0.79934  -0.78590  -0.76347
 Alpha  occ. eigenvalues --   -0.74256  -0.73209  -0.71580  -0.70982  -0.69357
 Alpha  occ. eigenvalues --   -0.67910  -0.65654  -0.64610  -0.63337  -0.61659
 Alpha  occ. eigenvalues --   -0.60088  -0.58254  -0.56910  -0.56651  -0.55403
 Alpha  occ. eigenvalues --   -0.53615  -0.53566  -0.52880  -0.52037  -0.50872
 Alpha  occ. eigenvalues --   -0.49732  -0.48486  -0.47709  -0.45765  -0.45494
 Alpha  occ. eigenvalues --   -0.45464  -0.44621  -0.43887  -0.42655  -0.42589
 Alpha  occ. eigenvalues --   -0.42430  -0.42157  -0.41552  -0.41178  -0.40563
 Alpha  occ. eigenvalues --   -0.40133  -0.39656  -0.39430  -0.38477  -0.38242
 Alpha  occ. eigenvalues --   -0.37426  -0.36921  -0.36484  -0.36102  -0.34902
 Alpha  occ. eigenvalues --   -0.34434  -0.34033  -0.33190  -0.32167  -0.31687
 Alpha  occ. eigenvalues --   -0.30521  -0.29623  -0.29317  -0.28394  -0.27961
 Alpha  occ. eigenvalues --   -0.26413  -0.25990  -0.25206  -0.23536  -0.21835
 Alpha  occ. eigenvalues --   -0.20408
 Alpha virt. eigenvalues --   -0.11847  -0.06752  -0.05501  -0.03343  -0.03001
 Alpha virt. eigenvalues --   -0.02418  -0.01743  -0.01568  -0.00927  -0.00889
 Alpha virt. eigenvalues --   -0.00524  -0.00040   0.00380   0.00818   0.01025

 Mulliken atomic charges:
              1
     1  C   -0.731238
     2  C   -0.180791
     3  C   -0.451936
     4  C   -0.609849
     5  C    0.190377
     6  S    0.175919
     7  C   -0.053183
     8  C    0.477508
     9  C    0.322819
    10  C   -0.321928
    11  C   -0.166367
    12  C   -0.000927
    13  C    0.033450
    14  N   -0.079521
    15  C   -0.274494
    16  N   -0.090757
    17  C   -0.123730
    18  C   -0.222544
    19  C   -0.412711
    20  S    0.058274
    21  C    0.252669
    22  C    0.735254
    23  C   -0.535957
    24  C    0.123833
    25  S    0.018108
    26  C   -0.542185
    27  C    0.035861
    28  N   -0.370041
    29  S    0.957380
    30  N   -0.498010
    31  C    0.355777
    32  H    0.168529
    33  H    0.168551
    34  H    0.134748
    35  H    0.101292
    36  H    0.170854
    37  H    0.051687
    38  H    0.233891
    39  H    0.272455
    40  H    0.146610
    41  H    0.172979
    42  H    0.110398
    43  H    0.196946
 Sum of Mulliken atomic charges =  -0.00000

 Dipole moment (field-independent basis, Debye):
    X=             -1.7918    Y=              2.1882    Z=              0.5188  Tot=              2.8754
 Quadrupole moment (field-independent basis, Debye-Ang):
   XX=           -164.8992   YY=           -193.3253   ZZ=           -211.1999
   XY=              8.4472   XZ=             -0.0332   YZ=             -0.8327

  Exact polarizability: 874.031  -7.604 396.181  -3.206  -5.507 200.109
 Approx polarizability:1181.591 -30.739 796.889  -0.901 -16.221 342.388

                     1                      2                      3
                     A                      A                      A
 Frequencies --     8.4355                14.9518                27.8917
 Red. masses --     7.7803                 8.6431                 9.4204
 Frc consts  --     0.0003                 0.0011                 0.0043
 IR Inten    --     0.4978                 0.1565                 0.3034

                     4                      5                      6
                     A                      A                      A
 Frequencies --    40.3836                47.8615                54.8847
 Red. masses --     7.6014                 5.3099                 5.9967
 Frc consts  --     0.0073                 0.0072                 0.0106
 IR Inten    --     0.3922                 0.8441                 0.1305

                     7                      8                      9
                     A                      A                      A
 Frequencies --    78.0407                92.1194               122.8404
 Red. masses --     7.8211                 7.2612                 8.2211
 Frc consts  --     0.0281                 0.0363                 0.0731
 IR Inten    --     0.0942                 0.7305                 0.5322

                    10                     11                     12
                     A                      A                      A
 Frequencies --   133.5447               141.8047               158.9978
 Red. masses --    11.3031                 5.4115                 9.7102
 Frc consts  --     0.1188                 0.0641                 0.1446
 IR Inten    --     0.2188                 0.2186                 0.2369

                    13                     14                     15
                     A                      A                      A
 Frequencies --   187.3219               206.5628               210.4966
 Red. masses --    10.7397                 6.4080                 7.2607
 Frc consts  --     0.2220                 0.1611                 0.1895
 IR Inten    --     0.4526                 3.0018                 0.4893

                    16                     17                     18
                     A                      A                      A
 Frequencies --   215.7186               244.8903               254.6576
 Red. masses --     7.0273                 4.9064                 6.5757
 Frc consts  --     0.1927                 0.1734                 0.2513
 IR Inten    --     4.4143                 0.8028                 0.6761

                    19                     20                     21
                     A                      A                      A
 Frequencies --   283.1356               285.7469               318.2970
 Red. masses --     8.1342                 5.4999                 5.0205
 Frc consts  --     0.3842                 0.2646                 0.2997
 IR Inten    --     0.2452                 1.9515                 2.3188

                    22                     23                     24
                     A                      A                      A
 Frequencies --   364.4203               376.9936               402.9790
 Red. masses --     5.3475                 7.8725                 5.8881
 Frc consts  --     0.4184                 0.6592                 0.5634
 IR Inten    --     7.2589                 4.7189                 0.5261

                    25                     26                     27
                     A                      A                      A
 Frequencies --   411.4201               420.3346               426.1248
 Red. masses --     3.6084                 8.1372                 2.7502
 Frc consts  --     0.3599                 0.8471                 0.2942
 IR Inten    --     5.7844                 0.9010                 1.2141

                    28                     29                     30
                     A                      A                      A
 Frequencies --   449.4753               463.4748               483.5631
 Red. masses --     4.6347                 6.5822                 5.6746
 Frc consts  --     0.5517                 0.8331                 0.7818
 IR Inten    --     5.2201                13.4162                 9.7406

                    31                     32                     33
                     A                      A                      A
 Frequencies --   489.6612               511.5303               513.4782
 Red. masses --     8.9719                 6.2954                 9.0067
 Frc consts  --     1.2674                 0.9705                 1.3991
 IR Inten    --     1.9872                 0.9149                 1.4059

                    34                     35                     36
                     A                      A                      A
 Frequencies --   519.3843               537.7219               554.1960
 Red. masses --     8.8197                 7.7319                 9.4694
 Frc consts  --     1.4018                 1.3172                 1.7136
 IR Inten    --     6.3288                 7.7412                 2.9629

                    37                     38                     39
                     A                      A                      A
 Frequencies --   574.8700               578.9613               605.1295
 Red. masses --     3.4223                 8.6041                 5.2339
 Frc consts  --     0.6663                 1.6992                 1.1292
 IR Inten    --     7.8451                31.7916                16.7912

                    40                     41                     42
                     A                      A                      A
 Frequencies --   640.7903               649.9417               673.2661
 Red. masses --     7.8373                 8.7380                 2.4687
 Frc consts  --     1.8961                 2.1748                 0.6593
 IR Inten    --    21.8201                 2.8228                15.4891

                    43                     44                     45
                     A                      A                      A
 Frequencies --   675.6174               682.6433               689.8910
 Red. masses --     2.2886                 6.8642                 3.4080
 Frc consts  --     0.6155                 1.8846                 0.9557
 IR Inten    --    26.6638                11.2512                 0.6731

                    46                     47                     48
                     A                      A                      A
 Frequencies --   695.5208               710.3080               720.7068
 Red. masses --     7.3399                 1.5720                 6.4151
 Frc consts  --     2.0920                 0.4673                 1.9632
 IR Inten    --    14.6641                17.4433                 4.7203

                    49                     50                     51
                     A                      A                      A
 Frequencies --   721.0683               769.5839               769.9130
 Red. masses --     1.3085                 2.0149                 2.0733
 Frc consts  --     0.4008                 0.7031                 0.7241
 IR Inten    --     0.1267                56.0373                22.8451

                    52                     53                     54
                     A                      A                      A
 Frequencies --   776.5758               783.2219               805.6301
 Red. masses --     9.3392                 3.6396                 7.2564
 Frc consts  --     3.3184                 1.3154                 2.7749
 IR Inten    --     3.2858                15.2542                 6.3864

                    55                     56                     57
                     A                      A                      A
 Frequencies --   808.1859               810.0640               840.2549
 Red. masses --     6.1346                 5.3267                12.3960
 Frc consts  --     2.3608                 2.0594                 5.1565
 IR Inten    --    17.9772                16.1218                36.5711

                    58                     59                     60
                     A                      A                      A
 Frequencies --   846.1095               848.0574               852.4346
 Red. masses --     4.8650                 9.0970                10.2031
 Frc consts  --     2.0520                 3.8548                 4.3682
 IR Inten    --    55.0893                 3.4503                58.0304

                    61                     62                     63
                     A                      A                      A
 Frequencies --   859.8613               865.2373               884.3354
 Red. masses --     1.6291                 4.2683                10.1226
 Frc consts  --     0.7097                 1.8827                 4.6642
 IR Inten    --    22.1061                13.6658                19.2142

                    64                     65                     66
                     A                      A                      A
 Frequencies --   903.2852               913.5966               941.3649
 Red. masses --     1.2971                 5.5191                 1.9388
 Frc consts  --     0.6236                 2.7141                 1.0123
 IR Inten    --     0.9913                 4.1546                 8.3083

                    67                     68                     69
                     A                      A                      A
 Frequencies --   941.6479               951.0410               961.1952
 Red. masses --     1.6637                 1.7287                 1.4683
 Frc consts  --     0.8692                 0.9212                 0.7992
 IR Inten    --     9.1640                 7.7278                 0.0192

                    70                     71                     72
                     A                      A                      A
 Frequencies --   962.4030               962.6744               977.1560
 Red. masses --     5.8912                 7.8506                 1.4173
 Frc consts  --     3.2149                 4.2866                 0.7974
 IR Inten    --     9.4579                 5.4771                 3.4414

                    73                     74                     75
                     A                      A                      A
 Frequencies --  1011.9544              1034.7185              1039.8007
 Red. masses --     1.3383                 3.5113                 3.4453
 Frc consts  --     0.8075                 2.2150                 2.1947
 IR Inten    --     0.8884                 6.5047                 5.7620

                    76                     77                     78
                     A                      A                      A
 Frequencies --  1080.4040              1113.5532              1133.4087
 Red. masses --     2.2503                 1.2179                 1.5702
 Frc consts  --     1.5476                 0.8898                 1.1884
 IR Inten    --     6.5746                11.3799                13.9488

                    79                     80                     81
                     A                      A                      A
 Frequencies --  1139.7040              1156.1946              1164.1541
 Red. masses --     2.5501                 1.1163                 1.5823
 Frc consts  --     1.9516                 0.8792                 1.2635
 IR Inten    --     1.6778                 0.6985                56.3031

                    82                     83                     84
                     A                      A                      A
 Frequencies --  1176.9258              1191.2341              1201.6283
 Red. masses --     1.4177                 1.5405                 4.0449
 Frc consts  --     1.1570                 1.2880                 3.4411
 IR Inten    --     1.9101                 0.9583                 3.7323

                    85                     86                     87
                     A                      A                      A
 Frequencies --  1254.1369              1268.8763              1302.3575
 Red. masses --     6.8436                 1.6978                 6.7069
 Frc consts  --     6.3420                 1.6106                 6.7025
 IR Inten    --    13.4843                 9.1099                 0.7992

                    88                     89                     90
                     A                      A                      A
 Frequencies --  1321.8287              1322.1411              1330.2702
 Red. masses --     2.1072                 1.9705                 1.9289
 Frc consts  --     2.1692                 2.0294                 2.0111
 IR Inten    --    84.5050                 8.8761                20.0811

                    91                     92                     93
                     A                      A                      A
 Frequencies --  1340.0265              1347.2400              1352.6475
 Red. masses --     3.4658                 3.6072                 2.0476
 Frc consts  --     3.6667                 3.8575                 2.2073
 IR Inten    --     0.7990                23.0096                15.4028

                    94                     95                     96
                     A                      A                      A
 Frequencies --  1356.5349              1372.1223              1388.8540
 Red. masses --     5.7393                 4.3829                 3.9912
 Frc consts  --     6.2226                 4.8618                 4.5360
 IR Inten    --     4.5735                71.1198                12.0397

                    97                     98                     99
                     A                      A                      A
 Frequencies --  1398.6673              1425.7498              1454.3869
 Red. masses --     6.3379                 3.6696                 1.1074
 Frc consts  --     7.3051                 4.3950                 1.3801
 IR Inten    --   160.4008               114.7916                10.4018

                   100                    101                    102
                     A                      A                      A
 Frequencies --  1488.2389              1502.6896              1516.6820
 Red. masses --     5.8006                 8.6167                 2.9984
 Frc consts  --     7.5695                11.4639                 4.0638
 IR Inten    --    83.4348               509.5414                 9.8335

                   103                    104                    105
                     A                      A                      A
 Frequencies --  1546.6409              1549.0970              1551.3115
 Red. masses --     5.7442                 6.8121                 6.0595
 Frc consts  --     8.0958                 9.6314                 8.5918
 IR Inten    --     3.1513                94.6891                87.9416

                   106                    107                    108
                     A                      A                      A
 Frequencies --  1565.8303              1588.8870              1603.4063
 Red. masses --     5.9337                 7.0111                 7.8110
 Frc consts  --     8.5717                10.4284                11.8316
 IR Inten    --     0.3207                28.3522                 8.7802

                   109                    110                    111
                     A                      A                      A
 Frequencies --  1603.6496              1633.4123              1639.6327
 Red. masses --     7.1603                 6.8030                 6.4249
 Frc consts  --    10.8492                10.6941                10.1767
 IR Inten    --    79.8415               235.1736               134.9417

                   112                    113                    114
                     A                      A                      A
 Frequencies --  3020.8088              3047.4209              3182.7397
 Red. masses --     1.0598                 1.1015                 1.0902
 Frc consts  --     5.6978                 6.0271                 6.5068
 IR Inten    --    13.5130                 7.8935                37.5149

                   115                    116                    117
                     A                      A                      A
 Frequencies --  3213.0707              3220.8649              3225.4176
 Red. masses --     1.0871                 1.0880                 1.0888
 Frc consts  --     6.6122                 6.6502                 6.6737
 IR Inten    --     1.8616                 1.6145                 3.8739

                   118                    119                    120
                     A                      A                      A
 Frequencies --  3234.4129              3234.9087              3235.6883
 Red. masses --     1.0916                 1.1029                 1.0942
 Frc consts  --     6.7285                 6.7997                 6.7497
 IR Inten    --     3.5281                30.5656                 6.3371

                   121                    122                    123
                     A                      A                      A
 Frequencies --  3251.3256              3253.2809              3262.1159
 Red. masses --     1.0998                 1.0938                 1.0937
 Frc consts  --     6.8497                 6.8207                 6.8569
 IR Inten    --     4.3827                 0.2886                 4.6797

 - Thermochemistry -
 -------------------
 Temperature   298.150 Kelvin.  Pressure   1.00000 Atm.
 Atom     1 has atomic number  6 and mass  12.00000

 Molecular mass:   471.99448 amu.
 Principal axes and moments of inertia in atomic units:
                           1         2         3
     Eigenvalues --  4887.06434********************
           X            0.99999   0.00371   0.00017
           Y           -0.00371   0.99999   0.00281
           Z           -0.00016  -0.00281   1.00000
 This molecule is an asymmetric top.
 Rotational symmetry number  1.
 Warning -- assumption of classical behavior for rotation
           may cause significant error
 Rotational temperatures (Kelvin)      0.01772     0.00191     0.00175
 Rotational constants (GHZ):           0.36929     0.03970     0.03648
 Zero-point vibrational energy     774922.6 (Joules/Mol)
                                  185.21094 (Kcal/Mol)
 Warning -- explicit consideration of  39 degrees of freedom as
           vibrations may cause significant error
 Vibrational temperatures:     12.14    21.51    40.13    58.10    68.86
          (Kelvin)             78.97   112.28   132.54   176.74   192.14
                              204.03   228.76   269.51   297.20   302.86
                              310.37   352.34   366.40   407.37   411.13
                              457.96   524.32   542.41   579.80   591.94
                              604.77   613.10   646.69   666.84   695.74
                              704.51   735.98   738.78   747.28   773.66
                              797.36   827.11   833.00   870.65   921.95
                              935.12   968.68   972.06   982.17   992.60
                             1000.70  1021.97  1036.94  1037.46  1107.26
                             1107.73  1117.32  1126.88  1159.12  1162.80
                             1165.50  1208.94  1217.36  1220.16  1226.46
                             1237.15  1244.88  1272.36  1299.62  1314.46
                             1354.41  1354.82  1368.33  1382.94  1384.68
                             1385.07  1405.91  1455.97  1488.73  1496.04
                             1554.46  1602.15  1630.72  1639.78  1663.50
                             1674.96  1693.33  1713.92  1728.87  1804.42
                             1825.63  1873.80  1901.81  1902.26  1913.96
                             1928.00  1938.38  1946.16  1951.75  1974.18
                             1998.25  2012.37  2051.33  2092.54  2141.24
                             2162.03  2182.16  2225.27  2228.80  2231.99
                             2252.88  2286.05  2306.94  2307.29  2350.11
                             2359.06  4346.26  4384.55  4579.25  4622.89
                             4634.10  4640.65  4653.59  4654.31  4655.43
                             4677.93  4680.74  4693.45

 Zero-point correction=                           0.295152 (Hartree/Particle)
 Thermal correction to Energy=                    0.319321
 Thermal correction to Enthalpy=                  0.320265
 Thermal correction to Gibbs Free Energy=         0.237324
 Sum of electronic and zero-point Energies=          -2695.138151
 Sum of electronic and thermal Energies=             -2695.113983
 Sum of electronic and thermal Enthalpies=           -2695.113039
 Sum of electronic and thermal Free Energies=        -2695.195979

                     E (Thermal)             CV                S
                      KCal/Mol        Cal/Mol-Kelvin    Cal/Mol-Kelvin
 Total                  200.377             95.526            174.563
 Electronic               0.000              0.000              0.000
 Translational            0.889              2.981             44.344
 Rotational               0.889              2.981             37.639
 Vibrational            198.599             89.564             92.580
 Vibration     1          0.593              1.987              8.349
 Vibration     2          0.593              1.986              7.212
 Vibration     3          0.593              1.984              5.974
 Vibration     4          0.594              1.981              5.240
 Vibration     5          0.595              1.978              4.904
 Vibration     6          0.596              1.976              4.633
 Vibration     7          0.599              1.964              3.940
 Vibration     8          0.602              1.955              3.615
 Vibration     9          0.610              1.930              3.055
 Vibration    10          0.613              1.920              2.894
 Vibration    11          0.615              1.911              2.779
 Vibration    12          0.621              1.893              2.562
 Vibration    13          0.632              1.857              2.254
 Vibration    14          0.641              1.831              2.074
 Vibration    15          0.643              1.825              2.039
 Vibration    16          0.645              1.817              1.995
 Vibration    17          0.660              1.771              1.767
 Vibration    18          0.665              1.755              1.698
 Vibration    19          0.682              1.705              1.515
 Vibration    20          0.684              1.700              1.499
 Vibration    21          0.705              1.639              1.319
 Vibration    22          0.738              1.546              1.103
 Vibration    23          0.748              1.519              1.051
 Vibration    24          0.768              1.464              0.952
 Vibration    25          0.775              1.445              0.922
 Vibration    26          0.783              1.426              0.891
 Vibration    27          0.788              1.413              0.871
 Vibration    28          0.808              1.362              0.797
 Vibration    29          0.821              1.331              0.756
 Vibration    30          0.840              1.287              0.701
 Vibration    31          0.846              1.273              0.684
 Vibration    32          0.867              1.224              0.630
 Vibration    33          0.869              1.220              0.625
 Vibration    34          0.874              1.207              0.611
 Vibration    35          0.893              1.167              0.570
 Vibration    36          0.910              1.131              0.536
 Vibration    37          0.931              1.086              0.495
 Vibration    38          0.936              1.077              0.487
 Vibration    39          0.964              1.021              0.441

 Optimization completed.
    -- Stationary point found.

 1\1\GINC-N020\Freq\RB3LYP\6-31++G(d,p)\C23H12N4S4\SHUO\29-Dec-2013\0\\
 #N Geom=AllCheck Guess=TCheck SCRF=Check Test GenChk RB3LYP/6-31++G(d,
 p) Freq\\Geom opt of No.57 candidate from the CEPDB database with SMIL
 E code of C1ccc2csc(c12)-c1ccc(cn1)-c1ncc(-c2scc3ccsc23)c2nsnc12, HPC,
  20131227, Shuo Dai, Gaussian09\\0,1\C,-1.4993513523,1.0797105049,0.33
 0726845\C,-2.332022241,-0.1665760323,0.5854621968\C,-1.57418149,-1.284
 2916278,0.5802694228\C,-0.1812489727,-0.9169094355,0.3275227099\C,1.03
 67488883,-1.5368140546,0.201990891\S,2.2977995591,-0.3849148812,-0.108

 Normal termination of Gaussian 09 at Sun Dec 29 19:40:12 2013.
