 Gaussian 09, Revision C.01,
 Gaussian 09:  EM64L-G09RevC.01 23-Sep-2011

 --------------------------------------------
 #B3LYP/6-31++G(d,p) opt scf=direct freq test
 --------------------------------------------

 Geom opt of No.22 candidate from the CEPDB database with SMILE code of
  [SiH2]1ccc2csc(c12)-c1sc(-c2ncc(s2)-c2nccc3nsnc23)c2sccc12, HPC, 2013
 1227, Shuo Dai, Gaussian09
 ----------------------------------------------------------------------
 Charge =  0 Multiplicity = 1

 SCF Done:  E(RB3LYP) =  -3267.51565595     A.U. after   32 cycles
 SCF Done:  E(RB3LYP) =  -3267.56039319     A.U. after   29 cycles
 SCF Done:  E(RB3LYP) =  -3267.58235433     A.U. after   32 cycles
 SCF Done:  E(RB3LYP) =  -3267.58375856     A.U. after   20 cycles
 SCF Done:  E(RB3LYP) =  -3267.58387953     A.U. after   20 cycles
 SCF Done:  E(RB3LYP) =  -3267.58390312     A.U. after   12 cycles
 SCF Done:  E(RB3LYP) =  -3267.58392611     A.U. after   20 cycles
 SCF Done:  E(RB3LYP) =  -3267.58403887     A.U. after   39 cycles
 SCF Done:  E(RB3LYP) =  -3267.58414129     A.U. after   18 cycles
 SCF Done:  E(RB3LYP) =  -3267.58498675     A.U. after   19 cycles
 SCF Done:  E(RB3LYP) =  -3267.58622549     A.U. after   15 cycles
 SCF Done:  E(RB3LYP) =  -3267.58743011     A.U. after   19 cycles
 SCF Done:  E(RB3LYP) =  -3267.58822847     A.U. after   18 cycles
 SCF Done:  E(RB3LYP) =  -3267.58843956     A.U. after   21 cycles
 SCF Done:  E(RB3LYP) =  -3267.58848631     A.U. after   14 cycles
 SCF Done:  E(RB3LYP) =  -3267.58849421     A.U. after   13 cycles
 SCF Done:  E(RB3LYP) =  -3267.58850154     A.U. after   12 cycles
 SCF Done:  E(RB3LYP) =  -3267.58850238     A.U. after   12 cycles
 SCF Done:  E(RB3LYP) =  -3267.58850282     A.U. after   11 cycles
 Optimization completed.
    -- Stationary point found.
 Normal termination of Gaussian 09 at Sun Dec 29 03:05:04 2013.

 ----------------------------------------------------------------------
 #N Geom=AllCheck Guess=TCheck SCRF=Check Test GenChk RB3LYP/6-31++G(d,
 p) Freq
 ----------------------------------------------------------------------

 Geom opt of No.22 candidate from the CEPDB database with SMILE code of
  [SiH2]1ccc2csc(c12)-c1sc(-c2ncc(s2)-c2nccc3nsnc23)c2sccc12, HPC, 2013
 1227, Shuo Dai, Gaussian09
 ----------------------------------------------------------------------
 Charge =  0 Multiplicity = 1

                         Standard orientation:
 ---------------------------------------------------------------------
 Center     Atomic      Atomic             Coordinates (Angstroms)
 Number     Number       Type             X           Y           Z
 ---------------------------------------------------------------------
      1         14           0        6.002573    0.276170    1.539586
      2          1           0        5.293582    0.347280    2.842827
      3          1           0        6.298467    1.663102    1.096535
      4          6           0        7.512396   -0.846548    1.525311
      5          6           0        7.314076   -1.867994    0.659105
      6          6           0        6.022264   -1.891104   -0.040865
      7          6           0        5.487213   -2.816307   -0.900176
      8         16           0        3.880523   -2.377049   -1.381678
      9          6           0        3.917504   -0.913212   -0.385005
     10          6           0        5.128572   -0.792414    0.258548
     11          6           0        2.753348   -0.046505   -0.338242
     12         16           0        1.144504   -0.726274   -0.190203
     13          6           0        0.371320    0.845693   -0.192507
     14          6           0       -1.048686    1.043461   -0.107350
     15          7           0       -1.580761    2.256589   -0.085412
     16          6           0       -2.931857    2.194061   -0.005768
     17          6           0       -3.501596    0.931852    0.037733
     18         16           0       -2.220889   -0.265067   -0.029295
     19          6           0       -4.924230    0.644755    0.125598
     20          7           0       -5.759437    1.674408    0.172942
     21          6           0       -7.105795    1.471585    0.256776
     22          6           0       -7.730628    0.246076    0.300582
     23          6           0       -6.885378   -0.892715    0.252837
     24          7           0       -7.246060   -2.184721    0.279793
     25         16           0       -5.855365   -3.057724    0.196431
     26          7           0       -4.756455   -1.837235    0.123772
     27          6           0       -5.454684   -0.698868    0.163373
     28          6           0        1.340033    1.832096   -0.290517
     29         16           0        1.270460    3.575738   -0.380115
     30          6           0        3.026507    3.629817   -0.559705
     31          6           0        3.635426    2.415532   -0.548397
     32          6           0        2.684817    1.343259   -0.380135
     33          1           0        8.435078   -0.753217    2.089617
     34          1           0        8.045668   -2.652565    0.473794
     35          1           0        5.933100   -3.729764   -1.271827
     36          1           0       -3.516892    3.104275    0.021084
     37          1           0       -7.697037    2.382906    0.289423
     38          1           0       -8.807542    0.147688    0.367433
     39          1           0        3.504704    4.594928   -0.670484
     40          1           0        4.702362    2.276569   -0.659701
 ---------------------------------------------------------------------

 SCF Done:  E(RB3LYP) =  -3267.58850282     A.U. after    2 cycles

 The electronic state is 1-A.
 Alpha  occ. eigenvalues --  -88.99675 -88.93844 -88.93265 -88.92896 -88.92222
 Alpha  occ. eigenvalues --  -66.14640 -14.39781 -14.39046 -14.35455 -14.35180
 Alpha  occ. eigenvalues --  -10.27822 -10.27389 -10.26547 -10.26507 -10.25605
 Alpha  occ. eigenvalues --  -10.25385 -10.25111 -10.24526 -10.24343 -10.24176
 Alpha  occ. eigenvalues --  -10.23662 -10.23490 -10.23416 -10.22574 -10.22109
 Alpha  occ. eigenvalues --  -10.21893 -10.21861 -10.21263 -10.20105 -10.19388
 Alpha  occ. eigenvalues --   -8.04986  -7.99666  -7.99119  -7.98788  -7.98024
 Alpha  occ. eigenvalues --   -6.01542  -6.00959  -6.00744  -5.96120  -5.95732
 Alpha  occ. eigenvalues --   -5.95540  -5.95353  -5.95223  -5.95183  -5.94834
 Alpha  occ. eigenvalues --   -5.94820  -5.94496  -5.94491  -5.94115  -5.93659
 Alpha  occ. eigenvalues --   -5.29344  -3.65248  -3.65184  -3.65165  -1.04172
 Alpha  occ. eigenvalues --   -0.98247  -0.96266  -0.92579  -0.91393  -0.89955
 Alpha  occ. eigenvalues --   -0.85929  -0.82852  -0.82000  -0.81788  -0.80209
 Alpha  occ. eigenvalues --   -0.78235  -0.75523  -0.74655  -0.73882  -0.72332
 Alpha  occ. eigenvalues --   -0.70414  -0.68470  -0.64993  -0.64723  -0.62718
 Alpha  occ. eigenvalues --   -0.60943  -0.60230  -0.58708  -0.58380  -0.56449
 Alpha  occ. eigenvalues --   -0.54855  -0.53809  -0.53354  -0.52787  -0.50223
 Alpha  occ. eigenvalues --   -0.50018  -0.49089  -0.48180  -0.47589  -0.46382
 Alpha  occ. eigenvalues --   -0.45394  -0.44550  -0.44394  -0.43690  -0.43471
 Alpha  occ. eigenvalues --   -0.42897  -0.42421  -0.42170  -0.40843  -0.40191
 Alpha  occ. eigenvalues --   -0.39921  -0.39837  -0.39350  -0.37786  -0.37535
 Alpha  occ. eigenvalues --   -0.36382  -0.36055  -0.35889  -0.35268  -0.35048
 Alpha  occ. eigenvalues --   -0.34607  -0.34242  -0.32627  -0.32272  -0.31964
 Alpha  occ. eigenvalues --   -0.31007  -0.30008  -0.29550  -0.28972  -0.28074
 Alpha  occ. eigenvalues --   -0.27998  -0.26346  -0.25830  -0.24590  -0.23813
 Alpha  occ. eigenvalues --   -0.20270
 Alpha virt. eigenvalues --   -0.11909  -0.08658  -0.05335  -0.04855  -0.03275
 Alpha virt. eigenvalues --   -0.02331  -0.01989  -0.01687  -0.01618  -0.00976
 Alpha virt. eigenvalues --   -0.00621  -0.00425  -0.00053   0.00254   0.00821

 Mulliken atomic charges:
              1
     1  Si   0.849006
     2  H   -0.075943
     3  H   -0.094791
     4  C   -0.085437
     5  C   -0.534492
     6  C    0.600798
     7  C    0.149835
     8  S    0.164389
     9  C   -0.145895
    10  C   -1.401095
    11  C   -0.467127
    12  S   -0.022869
    13  C   -0.632998
    14  C   -0.138219
    15  N   -0.025481
    16  C    0.170816
    17  C   -0.509612
    18  S    0.483079
    19  C   -0.399287
    20  N   -0.157828
    21  C    0.178725
    22  C   -0.598954
    23  C   -0.144765
    24  N   -0.398106
    25  S    0.883342
    26  N   -0.466493
    27  C    0.706032
    28  C    0.408573
    29  S    0.120095
    30  C   -0.128415
    31  C   -0.157001
    32  C    0.611972
    33  H    0.150039
    34  H    0.097270
    35  H    0.175430
    36  H    0.214742
    37  H    0.162877
    38  H    0.169306
    39  H    0.197498
    40  H    0.090981
 Sum of Mulliken atomic charges =  -0.00000

 Dipole moment (field-independent basis, Debye):
    X=              2.3146    Y=             -1.1993    Z=              0.0218  Tot=              2.6070
 Quadrupole moment (field-independent basis, Debye-Ang):
   XX=           -183.0921   YY=           -204.9701   ZZ=           -218.3229
   XY=             -4.2274   XZ=              0.3393   YZ=              1.7571

  Exact polarizability: 846.077   6.079 438.920   3.541  17.169 222.520
 Approx polarizability:1214.442  19.077 860.852  -0.035  50.706 387.030

                     1                      2                      3
                     A                      A                      A
 Frequencies --    14.4291                17.9494                27.4600
 Red. masses --    10.7509                 7.8893                10.4114
 Frc consts  --     0.0013                 0.0015                 0.0046
 IR Inten    --     0.1420                 0.0542                 0.1773

                     4                      5                      6
                     A                      A                      A
 Frequencies --    34.5706                47.4586                63.5798
 Red. masses --     8.7918                 7.2909                10.6798
 Frc consts  --     0.0062                 0.0097                 0.0254
 IR Inten    --     0.3646                 0.0066                 0.1533

                     7                      8                      9
                     A                      A                      A
 Frequencies --    67.3084                87.2878                94.7779
 Red. masses --     7.9406                 7.8110                12.1589
 Frc consts  --     0.0212                 0.0351                 0.0644
 IR Inten    --     0.0426                 0.0395                 0.2805

                    10                     11                     12
                     A                      A                      A
 Frequencies --   126.3224               139.5567               150.3643
 Red. masses --     5.2862                11.2029                 7.0688
 Frc consts  --     0.0497                 0.1286                 0.0942
 IR Inten    --     0.2127                 0.0503                 0.1061

                    13                     14                     15
                     A                      A                      A
 Frequencies --   175.0479               190.2714               195.5012
 Red. masses --     6.2392                 6.7364                 9.4581
 Frc consts  --     0.1126                 0.1437                 0.2130
 IR Inten    --     1.9249                 0.8967                 0.2617

                    16                     17                     18
                     A                      A                      A
 Frequencies --   211.5501               216.8080               247.4216
 Red. masses --     9.3033                10.2648                 6.7957
 Frc consts  --     0.2453                 0.2843                 0.2451
 IR Inten    --     1.4809                 1.9348                 2.7773

                    19                     20                     21
                     A                      A                      A
 Frequencies --   256.2754               271.3065               306.5912
 Red. masses --     7.2008                 6.4582                 5.8356
 Frc consts  --     0.2786                 0.2801                 0.3232
 IR Inten    --     0.3266                 1.0656                 5.6646

                    22                     23                     24
                     A                      A                      A
 Frequencies --   329.2988               351.7471               363.9178
 Red. masses --    14.0736                 6.6722                 2.5987
 Frc consts  --     0.8992                 0.4864                 0.2028
 IR Inten    --     4.6886                 7.4868                 1.1889

                    25                     26                     27
                     A                      A                      A
 Frequencies --   386.1090               394.9664               428.5188
 Red. masses --     9.4680                10.0039                13.3371
 Frc consts  --     0.8316                 0.9195                 1.4430
 IR Inten    --     0.1871                 1.5266                 8.5081

                    28                     29                     30
                     A                      A                      A
 Frequencies --   456.7165               459.1822               475.9292
 Red. masses --     7.9101                 8.0000                 6.5910
 Frc consts  --     0.9721                 0.9938                 0.8796
 IR Inten    --     4.7643                 6.5520                 6.8948

                    31                     32                     33
                     A                      A                      A
 Frequencies --   479.5126               492.6951               497.0506
 Red. masses --     5.4706                 8.7575                 7.7115
 Frc consts  --     0.7411                 1.2525                 1.1225
 IR Inten    --     2.6372                 2.0357                10.3151

                    34                     35                     36
                     A                      A                      A
 Frequencies --   514.3047               532.6033               538.2346
 Red. masses --     6.9173                12.7709                 5.0250
 Frc consts  --     1.0780                 2.1344                 0.8577
 IR Inten    --     4.1611                12.2465                 8.0145

                    37                     38                     39
                     A                      A                      A
 Frequencies --   562.0205               571.3927               593.4359
 Red. masses --     5.4422                 4.8951                 1.7469
 Frc consts  --     1.0128                 0.9416                 0.3625
 IR Inten    --    12.5790                 3.8001                12.2808

                    40                     41                     42
                     A                      A                      A
 Frequencies --   601.2805               606.1496               623.0942
 Red. masses --     4.8089                 7.5713                 1.9948
 Frc consts  --     1.0244                 1.6390                 0.4563
 IR Inten    --    44.9318                 4.3678                28.6316

                    43                     44                     45
                     A                      A                      A
 Frequencies --   631.3509               641.7352               644.6696
 Red. masses --     8.0375                13.4784                 7.3279
 Frc consts  --     1.8876                 3.2704                 1.7943
 IR Inten    --     6.0773                23.7426                 3.3513

                    46                     47                     48
                     A                      A                      A
 Frequencies --   661.1137               677.8857               703.0001
 Red. masses --     6.4683                 2.2785                 7.1100
 Frc consts  --     1.6657                 0.6169                 2.0703
 IR Inten    --     5.8113                15.6480                 8.5287

                    49                     50                     51
                     A                      A                      A
 Frequencies --   724.3086               734.5420               738.9835
 Red. masses --     1.6454                 1.6535                10.8624
 Frc consts  --     0.5086                 0.5256                 3.4950
 IR Inten    --    21.0241                29.5398                11.7737

                    52                     53                     54
                     A                      A                      A
 Frequencies --   739.9063               752.8589               754.5171
 Red. masses --     1.3597                 7.9651                 2.4342
 Frc consts  --     0.4386                 2.6599                 0.8165
 IR Inten    --     1.5034                 1.8942                14.7624

                    55                     56                     57
                     A                      A                      A
 Frequencies --   767.6329               791.3597               804.6122
 Red. masses --     4.1293                 5.5950                 1.8737
 Frc consts  --     1.4336                 2.0644                 0.7147
 IR Inten    --    19.6269                 0.2181                66.2644

                    58                     59                     60
                     A                      A                      A
 Frequencies --   811.6810               823.7203               828.4289
 Red. masses --     6.1591                 1.5139                10.8530
 Frc consts  --     2.3908                 0.6052                 4.3884
 IR Inten    --    50.9396                33.5460                15.4850

                    61                     62                     63
                     A                      A                      A
 Frequencies --   832.2821               834.3545               845.3731
 Red. masses --    13.2388                 7.4839                 4.1617
 Frc consts  --     5.4031                 3.0696                 1.7524
 IR Inten    --    84.8605                27.6321                29.1463

                    64                     65                     66
                     A                      A                      A
 Frequencies --   864.9305               883.4436               904.7918
 Red. masses --     2.1823                 9.9731                 1.2819
 Frc consts  --     0.9619                 4.5860                 0.6183
 IR Inten    --   223.1351                20.9361                 1.0569

                    67                     68                     69
                     A                      A                      A
 Frequencies --   914.6801               919.3871               941.9118
 Red. masses --     1.4145                 9.9704                 8.7187
 Frc consts  --     0.6973                 4.9655                 4.5575
 IR Inten    --     7.9870                48.2474                11.9184

                    70                     71                     72
                     A                      A                      A
 Frequencies --   952.4905               969.7996               984.8744
 Red. masses --     7.8743                 1.0657                 1.3548
 Frc consts  --     4.2091                 0.5905                 0.7742
 IR Inten    --     0.1120               113.9212                 0.3789

                    73                     74                     75
                     A                      A                      A
 Frequencies --   996.8219              1016.8541              1045.0716
 Red. masses --     1.3009                 4.2441                 4.0913
 Frc consts  --     0.7616                 2.5855                 2.6327
 IR Inten    --     1.5061                 1.2641                16.8765

                    76                     77                     78
                     A                      A                      A
 Frequencies --  1074.9206              1113.9674              1120.5992
 Red. masses --     2.3441                 1.2755                 1.1877
 Frc consts  --     1.5958                 0.9326                 0.8787
 IR Inten    --    35.1856                10.9151                18.3016

                    79                     80                     81
                     A                      A                      A
 Frequencies --  1142.0740              1166.1999              1172.3539
 Red. masses --     3.0142                 1.3451                 2.4618
 Frc consts  --     2.3164                 1.0778                 1.9935
 IR Inten    --    31.7094                 4.1895                57.7758

                    82                     83                     84
                     A                      A                      A
 Frequencies --  1228.7717              1260.4624              1271.3035
 Red. masses --     4.1648                 2.6142                 3.3315
 Frc consts  --     3.7050                 2.4471                 3.1724
 IR Inten    --    27.5792                31.2508                43.9296

                    85                     86                     87
                     A                      A                      A
 Frequencies --  1302.4085              1329.9383              1339.1028
 Red. masses --     6.4874                 2.2484                 1.6486
 Frc consts  --     6.4836                 2.3430                 1.7417
 IR Inten    --   160.9041                10.7937                 7.6408

                    88                     89                     90
                     A                      A                      A
 Frequencies --  1340.4336              1345.1316              1361.5715
 Red. masses --     2.5132                 3.8058                 7.7153
 Frc consts  --     2.6606                 4.0572                 8.4273
 IR Inten    --    23.0807                 2.8785                83.2764

                    91                     92                     93
                     A                      A                      A
 Frequencies --  1366.5329              1386.5995              1436.3698
 Red. masses --     6.1924                 5.3983                 4.3591
 Frc consts  --     6.8132                 6.1151                 5.2988
 IR Inten    --    35.7900               172.4844               143.7212

                    94                     95                     96
                     A                      A                      A
 Frequencies --  1439.6312              1491.8050              1498.3025
 Red. masses --     7.0418                 7.9998                 7.2532
 Frc consts  --     8.5988                10.4895                 9.5936
 IR Inten    --   410.4936               712.4934                89.8960

                    97                     98                     99
                     A                      A                      A
 Frequencies --  1512.3271              1534.7780              1540.1704
 Red. masses --     8.0556                 7.0452                 6.5203
 Frc consts  --    10.8552                 9.7777                 9.1129
 IR Inten    --    44.8081                30.4567                22.3295

                   100                    101                    102
                     A                      A                      A
 Frequencies --  1547.8760              1559.2687              1585.8792
 Red. masses --     4.8963                 8.9083                 9.1775
 Frc consts  --     6.9118                12.7610                13.5992
 IR Inten    --   111.8623                25.2154                85.8616

                   103                    104                    105
                     A                      A                      A
 Frequencies --  1605.7380              1608.9387              2229.6894
 Red. masses --     7.2418                 7.4798                 1.0465
 Frc consts  --    11.0014                11.4082                 3.0655
 IR Inten    --    11.9171                53.8072               109.1814

                   106                    107                    108
                     A                      A                      A
 Frequencies --  2234.0399              3165.4796              3186.1480
 Red. masses --     1.0349                 1.0885                 1.0899
 Frc consts  --     3.0431                 6.4260                 6.5186
 IR Inten    --   109.1469                23.2542                41.7159

                   109                    110                    111
                     A                      A                      A
 Frequencies --  3206.4125              3231.9455              3240.2583
 Red. masses --     1.0949                 1.0948                 1.0874
 Frc consts  --     6.6321                 6.7376                 6.7265
 IR Inten    --    15.2909                 3.7248                 1.1903

                   112                    113                    114
                     A                      A                      A
 Frequencies --  3250.7291              3252.6368              3258.3450
 Red. masses --     1.0938                 1.0936                 1.1008
 Frc consts  --     6.8099                 6.8165                 6.8857
 IR Inten    --     0.4461                 3.1471                 2.0953

 - Thermochemistry -
 -------------------
 Temperature   298.150 Kelvin.  Pressure   1.00000 Atm.
 Atom     1 has atomic number 14 and mass  27.97693

 Molecular mass:   493.92783 amu.
 Principal axes and moments of inertia in atomic units:
                           1         2         3
     Eigenvalues --  7310.83992********************
           X            0.99999  -0.00454   0.00237
           Y            0.00454   0.99999   0.00060
           Z           -0.00237  -0.00059   1.00000
 This molecule is an asymmetric top.
 Rotational symmetry number  1.
 Warning -- assumption of classical behavior for rotation
           may cause significant error
 Rotational temperatures (Kelvin)      0.01185     0.00222     0.00193
 Rotational constants (GHZ):           0.24686     0.04630     0.04032
 Zero-point vibrational energy     659612.0 (Joules/Mol)
                                  157.65105 (Kcal/Mol)
 Warning -- explicit consideration of  41 degrees of freedom as
           vibrations may cause significant error
 Vibrational temperatures:     20.76    25.83    39.51    49.74    68.28
          (Kelvin)             91.48    96.84   125.59   136.36   181.75
                              200.79   216.34   251.85   273.76   281.28
                              304.37   311.94   355.98   368.72   390.35
                              441.12   473.79   506.08   523.60   555.52
                              568.27   616.54   657.11   660.66   684.76
                              689.91   708.88   715.14   739.97   766.30
                              774.40   808.62   822.11   853.82   865.11
                              872.11   896.49   908.37   923.31   927.53
                              951.19   975.33  1011.46  1042.12  1056.84
                             1063.23  1064.56  1083.19  1085.58  1104.45
                             1138.59  1157.66  1167.83  1185.15  1191.92
                             1197.47  1200.45  1216.30  1244.44  1271.08
                             1301.79  1316.02  1322.79  1355.20  1370.42
                             1395.32  1417.01  1434.20  1463.02  1503.62
                             1546.57  1602.75  1612.29  1643.19  1677.90
                             1686.75  1767.93  1813.52  1829.12  1873.87
                             1913.48  1926.67  1928.58  1935.34  1959.00
                             1966.13  1995.00  2066.61  2071.31  2146.37
                             2155.72  2175.90  2208.20  2215.96  2227.05
                             2243.44  2281.72  2310.30  2314.90  3208.02
                             3214.28  4554.41  4584.15  4613.31  4650.04
                             4662.00  4677.07  4679.81  4688.03

 Zero-point correction=                           0.251233 (Hartree/Particle)
 Thermal correction to Energy=                    0.276175
 Thermal correction to Enthalpy=                  0.277119
 Thermal correction to Gibbs Free Energy=         0.192881
 Sum of electronic and zero-point Energies=          -3267.337270
 Sum of electronic and thermal Energies=             -3267.312328
 Sum of electronic and thermal Enthalpies=           -3267.311384
 Sum of electronic and thermal Free Energies=        -3267.395621

                     E (Thermal)             CV                S
                      KCal/Mol        Cal/Mol-Kelvin    Cal/Mol-Kelvin
 Total                  173.302             97.151            177.293
 Electronic               0.000              0.000              0.000
 Translational            0.889              2.981             44.479
 Rotational               0.889              2.981             37.787
 Vibrational            171.525             91.189             95.027
 Vibration     1          0.593              1.986              7.283
 Vibration     2          0.593              1.986              6.849
 Vibration     3          0.593              1.984              6.005
 Vibration     4          0.594              1.983              5.548
 Vibration     5          0.595              1.979              4.921
 Vibration     6          0.597              1.972              4.343
 Vibration     7          0.598              1.970              4.231
 Vibration     8          0.601              1.958              3.720
 Vibration     9          0.603              1.953              3.559
 Vibration    10          0.611              1.927              3.001
 Vibration    11          0.615              1.914              2.810
 Vibration    12          0.618              1.902              2.668
 Vibration    13          0.627              1.873              2.381
 Vibration    14          0.634              1.853              2.225
 Vibration    15          0.636              1.846              2.175
 Vibration    16          0.643              1.823              2.030
 Vibration    17          0.646              1.815              1.986
 Vibration    18          0.661              1.767              1.749
 Vibration    19          0.666              1.752              1.687
 Vibration    20          0.675              1.726              1.588
 Vibration    21          0.697              1.661              1.381
 Vibration    22          0.712              1.617              1.264
 Vibration    23          0.728              1.572              1.158
 Vibration    24          0.737              1.547              1.105
 Vibration    25          0.755              1.500              1.015
 Vibration    26          0.762              1.481              0.981
 Vibration    27          0.790              1.408              0.864
 Vibration    28          0.815              1.346              0.776
 Vibration    29          0.817              1.341              0.768
 Vibration    30          0.833              1.303              0.721
 Vibration    31          0.836              1.295              0.711
 Vibration    32          0.848              1.266              0.677
 Vibration    33          0.853              1.257              0.666
 Vibration    34          0.869              1.218              0.623
 Vibration    35          0.888              1.178              0.581
 Vibration    36          0.893              1.165              0.569
 Vibration    37          0.918              1.113              0.520
 Vibration    38          0.928              1.093              0.502
 Vibration    39          0.951              1.046              0.461
 Vibration    40          0.960              1.029              0.447
 Vibration    41          0.965              1.019              0.439

 Normal termination of Gaussian 09 at Sun Dec 29 04:48:24 2013.
