 Gaussian 09, Revision C.01,
 Gaussian 09:  EM64L-G09RevC.01 23-Sep-2011

 --------------------------------------------
 #B3LYP/6-31++G(d,p) opt scf=direct freq test
 --------------------------------------------

 Geom opt of No.87 candidate from the CEPDB database with SMILE code of
  [SiH2]1cc2c(ccc(-c3cccnc3)c2c1)-c1ccc([Se]1)-c1nccc2nsnc12, HPC, 2013
 1227, Shuo Dai, Gaussian09
 ----------------------------------------------------------------------
 Charge =  0 Multiplicity = 1

 SCF Done:  E(RB3LYP) =  -4153.02915288     A.U. after   17 cycles
 SCF Done:  E(RB3LYP) =  -4153.36274399     A.U. after   17 cycles
 SCF Done:  E(RB3LYP) =  -4153.75894368     A.U. after   18 cycles
 SCF Done:  E(RB3LYP) =  -4153.96560746     A.U. after   18 cycles
 SCF Done:  E(RB3LYP) =  -4154.04552535     A.U. after   18 cycles
 SCF Done:  E(RB3LYP) =  -4154.09748473     A.U. after   19 cycles
 SCF Done:  E(RB3LYP) =  -4154.10979318     A.U. after   19 cycles
 SCF Done:  E(RB3LYP) =  -4154.10540158     A.U. after   18 cycles
 SCF Done:  E(RB3LYP) =  -4154.11491321     A.U. after   19 cycles
 SCF Done:  E(RB3LYP) =  -4154.12349307     A.U. after   19 cycles
 SCF Done:  E(RB3LYP) =  -4154.13458532     A.U. after   23 cycles
 SCF Done:  E(RB3LYP) =  -4154.13465758     A.U. after   18 cycles
 SCF Done:  E(RB3LYP) =  -4154.13476892     A.U. after   19 cycles
 SCF Done:  E(RB3LYP) =  -4154.13480978     A.U. after   19 cycles
 SCF Done:  E(RB3LYP) =  -4154.13484076     A.U. after   19 cycles
 SCF Done:  E(RB3LYP) =  -4154.13483824     A.U. after   18 cycles
 SCF Done:  E(RB3LYP) =  -4154.13484290     A.U. after   13 cycles
 SCF Done:  E(RB3LYP) =  -4154.13484121     A.U. after   12 cycles
 SCF Done:  E(RB3LYP) =  -4154.13484147     A.U. after   11 cycles
 Optimization completed.
    -- Stationary point found.
 Normal termination of Gaussian 09 at Mon Dec 30 09:28:10 2013.

 ----------------------------------------------------------------------
 #N Geom=AllCheck Guess=TCheck SCRF=Check Test GenChk RB3LYP/6-31++G(d,
 p) Freq
 ----------------------------------------------------------------------

 Geom opt of No.87 candidate from the CEPDB database with SMILE code of
  [SiH2]1cc2c(ccc(-c3cccnc3)c2c1)-c1ccc([Se]1)-c1nccc2nsnc12, HPC, 2013
 1227, Shuo Dai, Gaussian09
 ----------------------------------------------------------------------
 Charge =  0 Multiplicity = 1

                         Standard orientation:
 ---------------------------------------------------------------------
 Center     Atomic      Atomic             Coordinates (Angstroms)
 Number     Number       Type             X           Y           Z
 ---------------------------------------------------------------------
      1         14           0        3.052236    2.614165    1.961832
      2          1           0        3.184608    2.169580    3.375341
      3          1           0        3.093369    4.099206    1.916618
      4          6           0        1.547763    1.837151    1.103367
      5          6           0        2.131735    0.573956    0.482190
      6          6           0        1.342198   -0.538495    0.120497
      7          6           0        1.979216   -1.701026   -0.343850
      8          6           0        3.362436   -1.748072   -0.478202
      9          6           0        4.160943   -0.637371   -0.161006
     10          6           0        5.634438   -0.740843   -0.344944
     11          6           0        6.372203   -1.790926    0.220394
     12          6           0        7.747006   -1.862130   -0.001143
     13          6           0        8.347769   -0.880132   -0.791072
     14          7           0        7.665082    0.126924   -1.353660
     15          6           0        6.347881    0.183324   -1.128984
     16          6           0        3.538677    0.526662    0.340509
     17          6           0        4.305451    1.754950    0.820485
     18          6           0       -0.127657   -0.531208    0.238397
     19          6           0       -0.909473   -1.408861    0.955305
     20          6           0       -2.314711   -1.241275    0.815400
     21          6           0       -2.700761   -0.223899   -0.031297
     22         34           0       -1.198202    0.632092   -0.794537
     23          6           0       -4.020023    0.216553   -0.436947
     24          7           0       -4.089211    1.208859   -1.314459
     25          6           0       -5.292520    1.683529   -1.748660
     26          6           0       -6.521595    1.217016   -1.348109
     27          6           0       -6.514460    0.154303   -0.406244
     28          7           0       -7.578767   -0.461257    0.129729
     29         16           0       -6.986980   -1.604806    1.151132
     30          7           0       -5.374374   -1.360941    0.950476
     31          6           0       -5.247993   -0.365077    0.067314
     32          1           0        1.171831    2.524202    0.332884
     33          1           0        0.698489    1.611797    1.754364
     34          1           0        1.376193   -2.560170   -0.621362
     35          1           0        3.832995   -2.648048   -0.863732
     36          1           0        5.872991   -2.531997    0.838747
     37          1           0        8.343373   -2.659487    0.431663
     38          1           0        9.418209   -0.900569   -0.983641
     39          1           0        5.818636    1.001243   -1.612305
     40          1           0        4.546638    2.425750   -0.015458
     41          1           0        5.257323    1.488519    1.287858
     42          1           0       -0.472795   -2.169418    1.595166
     43          1           0       -3.037822   -1.852070    1.340779
     44          1           0       -5.224692    2.495671   -2.467543
     45          1           0       -7.450338    1.629353   -1.723868
 ---------------------------------------------------------------------

 SCF Done:  E(RB3LYP) =  -4154.13484147     A.U. after    4 cycles

 The electronic state is 1-A.
 Alpha  occ. eigenvalues -- -453.90266 -88.99610 -66.13369 -57.50098 -52.17322
 Alpha  occ. eigenvalues --  -52.17184 -52.16951 -14.39687 -14.39062 -14.35551
 Alpha  occ. eigenvalues --  -14.34379 -10.27124 -10.26588 -10.26512 -10.24530
 Alpha  occ. eigenvalues --  -10.23548 -10.23263 -10.23249 -10.23244 -10.21950
 Alpha  occ. eigenvalues --  -10.21898 -10.21895 -10.21770 -10.21632 -10.21579
 Alpha  occ. eigenvalues --  -10.21538 -10.21124 -10.20908 -10.20533 -10.20444
 Alpha  occ. eigenvalues --  -10.20368 -10.18761 -10.18623  -8.04936  -7.74145
 Alpha  occ. eigenvalues --   -6.01490  -6.00907  -6.00695  -5.78283  -5.77895
 Alpha  occ. eigenvalues --   -5.77327  -5.28173  -3.64032  -3.64032  -3.63990
 Alpha  occ. eigenvalues --   -2.13890  -2.13840  -2.13329  -2.13019  -2.12964
 Alpha  occ. eigenvalues --   -1.04112  -0.96458  -0.95141  -0.91336  -0.88767
 Alpha  occ. eigenvalues --   -0.86752  -0.82727  -0.81770  -0.80351  -0.79407
 Alpha  occ. eigenvalues --   -0.78829  -0.76134  -0.73105  -0.72333  -0.70321
 Alpha  occ. eigenvalues --   -0.68904  -0.67954  -0.65096  -0.64316  -0.64009
 Alpha  occ. eigenvalues --   -0.62740  -0.60092  -0.58466  -0.56517  -0.55162
 Alpha  occ. eigenvalues --   -0.53372  -0.53001  -0.52461  -0.51952  -0.50889
 Alpha  occ. eigenvalues --   -0.49646  -0.48927  -0.48173  -0.47544  -0.47455
 Alpha  occ. eigenvalues --   -0.45440  -0.44631  -0.44171  -0.43836  -0.42293
 Alpha  occ. eigenvalues --   -0.41970  -0.41794  -0.41516  -0.41178  -0.41073
 Alpha  occ. eigenvalues --   -0.40521  -0.40158  -0.39059  -0.38195  -0.37624
 Alpha  occ. eigenvalues --   -0.36524  -0.36195  -0.35535  -0.34931  -0.34416
 Alpha  occ. eigenvalues --   -0.33867  -0.33691  -0.32941  -0.32273  -0.30884
 Alpha  occ. eigenvalues --   -0.30035  -0.29937  -0.28706  -0.28132  -0.27817
 Alpha  occ. eigenvalues --   -0.26596  -0.25264  -0.25118  -0.24402  -0.22362
 Alpha virt. eigenvalues --   -0.11626  -0.06199  -0.04501  -0.03806  -0.02285
 Alpha virt. eigenvalues --   -0.02013  -0.01801  -0.01516  -0.00950  -0.00637
 Alpha virt. eigenvalues --   -0.00547   0.00044   0.00275   0.00378   0.00753

 Mulliken atomic charges:
              1
     1  Si   0.900681
     2  H   -0.074429
     3  H   -0.084873
     4  C   -0.934540
     5  C    0.273855
     6  C    0.567779
     7  C   -0.547159
     8  C   -0.482085
     9  C    0.348920
    10  C    0.328327
    11  C   -0.078206
    12  C   -0.013264
    13  C   -0.149696
    14  N   -0.056870
    15  C   -0.510907
    16  C   -0.090817
    17  C   -0.931879
    18  C   -0.137922
    19  C   -0.539321
    20  C   -0.629530
    21  C    0.294502
    22  Se   0.218500
    23  C   -0.125902
    24  N   -0.044228
    25  C    0.150777
    26  C   -0.243478
    27  C    0.291301
    28  N   -0.409269
    29  S    0.856156
    30  N   -0.498986
    31  C    0.001189
    32  H    0.203497
    33  H    0.211361
    34  H    0.127393
    35  H    0.126652
    36  H    0.167784
    37  H    0.135256
    38  H    0.144181
    39  H    0.159658
    40  H    0.195356
    41  H    0.220797
    42  H    0.151080
    43  H    0.181493
    44  H    0.149379
    45  H    0.177485
 Sum of Mulliken atomic charges =  -0.00000

 Dipole moment (field-independent basis, Debye):
    X=             -0.6595    Y=             -1.6364    Z=              1.6109  Tot=              2.3891
 Quadrupole moment (field-independent basis, Debye-Ang):
   XX=           -197.5796   YY=           -185.1826   ZZ=           -198.1691
   XY=            -12.0682   XZ=             10.2544   YZ=             -4.4250

  Exact polarizability: 652.702 -13.287 314.328  -3.660 -35.910 250.574
 Approx polarizability: 867.831 -23.328 576.811  -3.081-125.481 451.584

                     1                      2                      3
                     A                      A                      A
 Frequencies --    13.6435                18.9603                27.7715
 Red. masses --    10.1624                 7.5405                 6.6056
 Frc consts  --     0.0011                 0.0016                 0.0030
 IR Inten    --     0.0502                 0.0375                 0.2982

                     4                      5                      6
                     A                      A                      A
 Frequencies --    46.1039                50.8670                62.4734
 Red. masses --     5.7669                 6.7829                 6.2962
 Frc consts  --     0.0072                 0.0103                 0.0145
 IR Inten    --     0.5630                 0.9787                 0.2210

                     7                      8                      9
                     A                      A                      A
 Frequencies --    81.2729                88.3579                95.2442
 Red. masses --     6.2104                 2.6681                 6.8952
 Frc consts  --     0.0242                 0.0123                 0.0369
 IR Inten    --     0.8041                 0.4393                 0.0794

                    10                     11                     12
                     A                      A                      A
 Frequencies --   105.8513               128.9922               152.9333
 Red. masses --     5.2611                 4.5703                 7.1804
 Frc consts  --     0.0347                 0.0448                 0.0989
 IR Inten    --     0.2626                 0.1153                 0.3433

                    13                     14                     15
                     A                      A                      A
 Frequencies --   165.5019               202.5456               206.0072
 Red. masses --     5.0187                 4.7137                 8.5553
 Frc consts  --     0.0810                 0.1139                 0.2139
 IR Inten    --     0.5161                 0.6366                 0.3456

                    16                     17                     18
                     A                      A                      A
 Frequencies --   206.4927               239.8439               260.1426
 Red. masses --    18.0367                 4.0962                 4.9660
 Frc consts  --     0.4531                 0.1388                 0.1980
 IR Inten    --     1.5233                 1.4450                 2.0878

                    19                     20                     21
                     A                      A                      A
 Frequencies --   283.7664               309.8993               339.9639
 Red. masses --     4.1678                 4.9491                 5.8758
 Frc consts  --     0.1977                 0.2800                 0.4001
 IR Inten    --     3.7606                 4.7592                 5.7545

                    22                     23                     24
                     A                      A                      A
 Frequencies --   371.3061               391.3835               404.2756
 Red. masses --     3.3518                 5.1088                 4.3308
 Frc consts  --     0.2723                 0.4611                 0.4170
 IR Inten    --    10.0328                 0.5121                 0.9721

                    25                     26                     27
                     A                      A                      A
 Frequencies --   417.8081               435.7854               456.5834
 Red. masses --     3.6081                 6.9855                 5.2250
 Frc consts  --     0.3711                 0.7816                 0.6418
 IR Inten    --     1.7169                 9.5164                 0.4638

                    28                     29                     30
                     A                      A                      A
 Frequencies --   484.3041               493.4642               503.4655
 Red. masses --     4.1569                 3.5589                 2.3854
 Frc consts  --     0.5745                 0.5106                 0.3562
 IR Inten    --     2.2676                 4.5535                11.6078

                    31                     32                     33
                     A                      A                      A
 Frequencies --   524.5668               541.4368               550.1106
 Red. masses --     3.0285                 4.2451                 2.9851
 Frc consts  --     0.4910                 0.7332                 0.5322
 IR Inten    --     0.5378                 2.6018                 3.4139

                    34                     35                     36
                     A                      A                      A
 Frequencies --   567.8278               575.8054               582.5860
 Red. masses --     4.7953                 4.1965                 6.0537
 Frc consts  --     0.9110                 0.8198                 1.2106
 IR Inten    --    11.2064                 1.7900                 2.1480

                    37                     38                     39
                     A                      A                      A
 Frequencies --   600.0177               603.5615               610.0492
 Red. masses --     1.6470                 8.1761                 4.9860
 Frc consts  --     0.3494                 1.7548                 1.0933
 IR Inten    --     0.4426                 2.4013                 1.2131

                    40                     41                     42
                     A                      A                      A
 Frequencies --   619.3672               637.0798               649.6404
 Red. masses --     4.4569                 6.5123                 4.0221
 Frc consts  --     1.0073                 1.5573                 1.0001
 IR Inten    --     1.0503                 2.4431                 4.8926

                    43                     44                     45
                     A                      A                      A
 Frequencies --   666.0751               684.6845               708.5862
 Red. masses --     5.8241                 5.1284                 2.5593
 Frc consts  --     1.5224                 1.4165                 0.7571
 IR Inten    --    10.7423                11.8771                 0.6935

                    46                     47                     48
                     A                      A                      A
 Frequencies --   722.5861               730.7637               732.0145
 Red. masses --     4.1413                 2.0915                 3.4640
 Frc consts  --     1.2740                 0.6580                 1.0936
 IR Inten    --    34.5735                18.5557                 7.2557

                    49                     50                     51
                     A                      A                      A
 Frequencies --   734.6454               755.6032               801.9564
 Red. masses --     3.6818                 2.6699                 3.3681
 Frc consts  --     1.1708                 0.8981                 1.2763
 IR Inten    --     9.3063                 6.3927                 1.1984

                    52                     53                     54
                     A                      A                      A
 Frequencies --   805.1701               819.9020               826.6459
 Red. masses --     2.5468                 1.9757                 4.6711
 Frc consts  --     0.9728                 0.7825                 1.8806
 IR Inten    --    32.5744                42.7119                28.9318

                    55                     56                     57
                     A                      A                      A
 Frequencies --   829.6850               831.3082               840.8076
 Red. masses --     1.6129                 9.2401                 2.4696
 Frc consts  --     0.6541                 3.7623                 1.0287
 IR Inten    --    36.9518                20.4128                34.7560

                    58                     59                     60
                     A                      A                      A
 Frequencies --   847.0530               852.5115               857.7825
 Red. masses --     1.8001                 2.0393                 1.6955
 Frc consts  --     0.7610                 0.8732                 0.7350
 IR Inten    --    51.1954                 4.9007                 9.1318

                    61                     62                     63
                     A                      A                      A
 Frequencies --   860.6348               870.5104               908.0467
 Red. masses --     1.9421                 5.9100                 3.2411
 Frc consts  --     0.8475                 2.6387                 1.5745
 IR Inten    --    13.5248                21.2235                87.4262

                    64                     65                     66
                     A                      A                      A
 Frequencies --   917.7854               943.2451               952.7913
 Red. masses --     8.1571                 1.5152                 1.3357
 Frc consts  --     4.0482                 0.7943                 0.7144
 IR Inten    --    12.4745                 1.1478                 0.4676

                    67                     68                     69
                     A                      A                      A
 Frequencies --   965.3306               971.8699               978.8770
 Red. masses --     1.3327                 1.0627                 1.4600
 Frc consts  --     0.7317                 0.5914                 0.8243
 IR Inten    --     1.5961               138.9530                 1.2092

                    70                     71                     72
                     A                      A                      A
 Frequencies --  1006.0499              1006.2608              1017.7272
 Red. masses --     1.3828                 1.3920                 3.5804
 Frc consts  --     0.8246                 0.8305                 2.1850
 IR Inten    --     0.2955                 0.6711                 2.0477

                    73                     74                     75
                     A                      A                      A
 Frequencies --  1036.3167              1059.3579              1077.5606
 Red. masses --     4.2380                 3.3048                 1.9884
 Frc consts  --     2.6816                 2.1852                 1.3603
 IR Inten    --    15.3755                 2.2002                 0.4029

                    76                     77                     78
                     A                      A                      A
 Frequencies --  1089.3906              1103.2724              1137.6699
 Red. masses --     1.7728                 2.1306                 1.1981
 Frc consts  --     1.2396                 1.5280                 0.9137
 IR Inten    --    50.5674                 5.3791                 6.5464

                    79                     80                     81
                     A                      A                      A
 Frequencies --  1142.5247              1146.1192              1150.1805
 Red. masses --     1.3811                 1.5107                 3.7414
 Frc consts  --     1.0622                 1.1692                 2.9162
 IR Inten    --    14.2041                 0.4400                 0.3237

                    82                     83                     84
                     A                      A                      A
 Frequencies --  1165.4718              1181.5292              1205.4193
 Red. masses --     1.4496                 1.4159                 1.6875
 Frc consts  --     1.1601                 1.1646                 1.4447
 IR Inten    --     7.0073                38.7414                25.1525

                    85                     86                     87
                     A                      A                      A
 Frequencies --  1218.5980              1227.2937              1234.4104
 Red. masses --     2.0865                 1.5640                 1.8622
 Frc consts  --     1.8256                 1.3880                 1.6719
 IR Inten    --     1.4809                 5.4132                53.9668

                    88                     89                     90
                     A                      A                      A
 Frequencies --  1251.5957              1285.1687              1290.6356
 Red. masses --     2.1871                 3.1341                 4.9134
 Frc consts  --     2.0186                 3.0498                 4.8221
 IR Inten    --     2.2460                13.5335                 5.7637

                    91                     92                     93
                     A                      A                      A
 Frequencies --  1302.8958              1322.1315              1331.4215
 Red. masses --     3.8515                 2.9437                 3.2471
 Frc consts  --     3.8521                 3.0317                 3.3914
 IR Inten    --     0.8668                 6.3143                30.3185

                    94                     95                     96
                     A                      A                      A
 Frequencies --  1348.0184              1359.6363              1363.3006
 Red. masses --     7.0467                 2.5983                 1.3659
 Frc consts  --     7.5445                 2.8299                 1.4958
 IR Inten    --    66.7312                 1.4137                 4.6991

                    97                     98                     99
                     A                      A                      A
 Frequencies --  1378.1334              1407.7609              1434.5594
 Red. masses --     8.1561                 3.3742                 3.3576
 Frc consts  --     9.1267                 3.9398                 4.0711
 IR Inten    --     1.7900                20.5618                 2.4631

                   100                    101                    102
                     A                      A                      A
 Frequencies --  1449.5577              1451.0420              1462.5757
 Red. masses --     1.1412                 2.1894                 1.1759
 Frc consts  --     1.4127                 2.7160                 1.4820
 IR Inten    --     0.2967                21.4613                 5.5186

                   103                    104                    105
                     A                      A                      A
 Frequencies --  1486.6753              1495.2339              1512.4940
 Red. masses --     3.1264                 5.4491                 3.0701
 Frc consts  --     4.0713                 7.1778                 4.1381
 IR Inten    --   429.5090               136.4987                48.7575

                   106                    107                    108
                     A                      A                      A
 Frequencies --  1527.2626              1549.8940              1583.7394
 Red. masses --     4.4784                 4.8302                 6.0522
 Frc consts  --     6.1546                 6.8362                 8.9440
 IR Inten    --   150.3676                49.0614                 2.1048

                   109                    110                    111
                     A                      A                      A
 Frequencies --  1588.5380              1610.6143              1611.4401
 Red. masses --     6.1445                 7.1902                 5.3976
 Frc consts  --     9.1354                10.9894                 8.2581
 IR Inten    --    48.0543                42.4976                13.5780

                   112                    113                    114
                     A                      A                      A
 Frequencies --  1627.7571              1635.9925              2224.2893
 Red. masses --     6.4396                 5.8266                 1.0344
 Frc consts  --    10.0528                 9.1881                 3.0151
 IR Inten    --     4.5198                 1.6658               165.8217

                   115                    116                    117
                     A                      A                      A
 Frequencies --  2233.4251              3034.0887              3035.8841
 Red. masses --     1.0478                 1.0686                 1.0683
 Frc consts  --     3.0795                 5.7958                 5.8010
 IR Inten    --   170.6867                14.0350                 8.9997

                   118                    119                    120
                     A                      A                      A
 Frequencies --  3107.7716              3108.9196              3172.2881
 Red. masses --     1.0926                 1.0924                 1.0877
 Frc consts  --     6.2176                 6.2208                 6.4494
 IR Inten    --     3.2936                 5.5695                21.4998

                   121                    122                    123
                     A                      A                      A
 Frequencies --  3177.3274              3184.2383              3187.9658
 Red. masses --     1.0910                 1.0878                 1.0899
 Frc consts  --     6.4893                 6.4985                 6.5260
 IR Inten    --    10.3848                17.9261                28.7470

                   124                    125                    126
                     A                      A                      A
 Frequencies --  3188.2002              3201.8731              3203.1217
 Red. masses --     1.0896                 1.0922                 1.0935
 Frc consts  --     6.5254                 6.5975                 6.6101
 IR Inten    --     7.6164                 7.9873                 9.3000

                   127                    128                    129
                     A                      A                      A
 Frequencies --  3206.9505              3232.4921              3243.6111
 Red. masses --     1.0969                 1.0949                 1.0934
 Frc consts  --     6.6468                 6.7406                 6.7778
 IR Inten    --    21.8986                 3.8957                 1.0029

 - Thermochemistry -
 -------------------
 Temperature   298.150 Kelvin.  Pressure   1.00000 Atm.
 Atom     1 has atomic number 14 and mass  27.97693

 Molecular mass:   476.00302 amu.
 Principal axes and moments of inertia in atomic units:
                           1         2         3
     Eigenvalues --  4436.28907********************
           X            1.00000  -0.00215   0.00208
           Y            0.00208   0.99949   0.03201
           Z           -0.00215  -0.03201   0.99949
 This molecule is an asymmetric top.
 Rotational symmetry number  1.
 Warning -- assumption of classical behavior for rotation
           may cause significant error
 Rotational temperatures (Kelvin)      0.01952     0.00223     0.00216
 Rotational constants (GHZ):           0.40681     0.04652     0.04502
 Zero-point vibrational energy     856165.0 (Joules/Mol)
                                  204.62834 (Kcal/Mol)
 Warning -- explicit consideration of  40 degrees of freedom as
           vibrations may cause significant error
 Vibrational temperatures:     19.63    27.28    39.96    66.33    73.19
          (Kelvin)             89.89   116.93   127.13   137.03   152.30
                              185.59   220.04   238.12   291.42   296.40
                              297.10   345.08   374.29   408.28   445.88
                              489.13   534.23   563.11   581.66   601.13
                              627.00   656.92   696.80   709.98   724.37
                              754.73   779.01   791.49   816.98   828.45
                              838.21   863.29   868.39   877.72   891.13
                              916.61   934.69   958.33   985.11  1019.50
                             1039.64  1051.40  1053.20  1056.99  1087.14
                             1153.83  1158.46  1179.65  1189.36  1193.73
                             1196.07  1209.73  1218.72  1226.57  1234.16
                             1238.26  1252.47  1306.47  1320.49  1357.12
                             1370.85  1388.89  1398.30  1408.38  1447.48
                             1447.78  1464.28  1491.03  1524.18  1550.37
                             1567.39  1587.36  1636.85  1643.84  1649.01
                             1654.85  1676.85  1699.95  1734.33  1753.29
                             1765.80  1776.04  1800.76  1849.07  1856.93
                             1874.57  1902.25  1915.62  1939.50  1956.21
                             1961.48  1982.82  2025.45  2064.01  2085.59
                             2087.72  2104.32  2138.99  2151.31  2176.14
                             2197.39  2229.95  2278.64  2285.55  2317.31
                             2318.50  2341.98  2353.83  3200.25  3213.40
                             4365.37  4367.95  4471.38  4473.04  4564.21
                             4571.46  4581.40  4586.77  4587.10  4606.78
                             4608.57  4614.08  4650.83  4666.83

 Zero-point correction=                           0.326096 (Hartree/Particle)
 Thermal correction to Energy=                    0.349977
 Thermal correction to Enthalpy=                  0.350921
 Thermal correction to Gibbs Free Energy=         0.269120
 Sum of electronic and zero-point Energies=          -4153.808745
 Sum of electronic and thermal Energies=             -4153.784864
 Sum of electronic and thermal Enthalpies=           -4153.783920
 Sum of electronic and thermal Free Energies=        -4153.865722

                     E (Thermal)             CV                S
                      KCal/Mol        Cal/Mol-Kelvin    Cal/Mol-Kelvin
 Total                  219.614             94.365            172.167
 Electronic               0.000              0.000              0.000
 Translational            0.889              2.981             44.369
 Rotational               0.889              2.981             37.176
 Vibrational            217.837             88.403             90.621
 Vibration     1          0.593              1.986              7.394
 Vibration     2          0.593              1.986              6.740
 Vibration     3          0.593              1.984              5.983
 Vibration     4          0.595              1.979              4.978
 Vibration     5          0.595              1.977              4.783
 Vibration     6          0.597              1.972              4.378
 Vibration     7          0.600              1.962              3.860
 Vibration     8          0.601              1.957              3.696
 Vibration     9          0.603              1.953              3.549
 Vibration    10          0.605              1.945              3.344
 Vibration    11          0.611              1.924              2.961
 Vibration    12          0.619              1.899              2.635
 Vibration    13          0.624              1.885              2.486
 Vibration    14          0.639              1.836              2.110
 Vibration    15          0.640              1.831              2.079
 Vibration    16          0.641              1.831              2.074
 Vibration    17          0.657              1.779              1.804
 Vibration    18          0.668              1.746              1.661
 Vibration    19          0.682              1.704              1.511
 Vibration    20          0.699              1.655              1.363
 Vibration    21          0.720              1.596              1.212
 Vibration    22          0.743              1.531              1.074
 Vibration    23          0.759              1.489              0.995
 Vibration    24          0.769              1.461              0.947
 Vibration    25          0.781              1.432              0.899
 Vibration    26          0.796              1.392              0.840
 Vibration    27          0.815              1.346              0.776
 Vibration    28          0.840              1.285              0.699
 Vibration    29          0.849              1.265              0.675
 Vibration    30          0.859              1.242              0.650
 Vibration    31          0.880              1.196              0.599
 Vibration    32          0.897              1.158              0.562
 Vibration    33          0.905              1.139              0.544
 Vibration    34          0.924              1.101              0.508
 Vibration    35          0.932              1.084              0.493
 Vibration    36          0.939              1.069              0.481
 Vibration    37          0.958              1.032              0.450
 Vibration    38          0.962              1.024              0.444
 Vibration    39          0.969              1.011              0.433
 Vibration    40          0.979              0.991              0.418

 Optimization completed.
    -- Stationary point found.
 Normal termination of Gaussian 09 at Mon Dec 30 11:36:40 2013.
