 Gaussian 09, Revision C.01,
 Gaussian 09:  EM64L-G09RevC.01 23-Sep-2011

 --------------------------------------------
 #B3LYP/6-31++G(d,p) opt scf=direct freq test
 --------------------------------------------

 Geom opt of No.46 candidate from the CEPDB database with SMILE code of
  [SiH2]1ccc2c1c(sc2-c1cnc(-c2ccc[Se]2)c2nsnc12)-c1ccco1, HPC, 20131227
 , Shuo Dai, Gaussian09
 ----------------------------------------------------------------------
 Charge =  0 Multiplicity = 1

 SCF Done:  E(RB3LYP) =  -4453.73487799     A.U. after   18 cycles
 SCF Done:  E(RB3LYP) =  -4454.16087825     A.U. after   17 cycles
 SCF Done:  E(RB3LYP) =  -4454.72516624     A.U. after   17 cycles
 SCF Done:  E(RB3LYP) =  -4455.12358324     A.U. after   18 cycles
 SCF Done:  E(RB3LYP) =  -4455.17185290     A.U. after   18 cycles
 SCF Done:  E(RB3LYP) =  -4455.26647504     A.U. after   17 cycles
 SCF Done:  E(RB3LYP) =  -4455.35007094     A.U. after   18 cycles
 SCF Done:  E(RB3LYP) =  -4455.35921947     A.U. after   19 cycles
 SCF Done:  E(RB3LYP) =  -4455.37070335     A.U. after   19 cycles
 SCF Done:  E(RB3LYP) =  -4455.37568821     A.U. after   19 cycles
 SCF Done:  E(RB3LYP) =  -4455.39554206     A.U. after   16 cycles
 SCF Done:  E(RB3LYP) =  -4455.39555345     A.U. after   12 cycles
 SCF Done:  E(RB3LYP) =  -4455.39556573     A.U. after   12 cycles
 SCF Done:  E(RB3LYP) =  -4455.39557068     A.U. after   12 cycles
 SCF Done:  E(RB3LYP) =  -4455.39557258     A.U. after   11 cycles
 SCF Done:  E(RB3LYP) =  -4455.39557324     A.U. after   10 cycles
 SCF Done:  E(RB3LYP) =  -4455.39557361     A.U. after   10 cycles
 SCF Done:  E(RB3LYP) =  -4455.39557377     A.U. after   10 cycles
 SCF Done:  E(RB3LYP) =  -4455.39557379     A.U. after   10 cycles
 Optimization completed.
    -- Stationary point found.
 Normal termination of Gaussian 09 at Sun Dec 29 12:31:09 2013.

 ----------------------------------------------------------------------
 #N Geom=AllCheck Guess=TCheck SCRF=Check Test GenChk RB3LYP/6-31++G(d,
 p) Freq
 ----------------------------------------------------------------------

 Geom opt of No.46 candidate from the CEPDB database with SMILE code of
  [SiH2]1ccc2c1c(sc2-c1cnc(-c2ccc[Se]2)c2nsnc12)-c1ccco1, HPC, 20131227
 , Shuo Dai, Gaussian09
 ----------------------------------------------------------------------
 Charge =  0 Multiplicity = 1

                         Standard orientation:
 ---------------------------------------------------------------------
 Center     Atomic      Atomic             Coordinates (Angstroms)
 Number     Number       Type             X           Y           Z
 ---------------------------------------------------------------------
      1         14           0       -4.316916    2.871946   -0.755934
      2          1           0       -5.002360    3.593130    0.350071
      3          1           0       -5.276050    2.770027   -1.888610
      4          6           0       -2.634492    3.560015   -1.230333
      5          6           0       -1.680581    2.626428   -0.993717
      6          6           0       -2.134506    1.348277   -0.424495
      7          6           0       -3.558267    1.236431   -0.241443
      8          6           0       -3.932325   -0.005126    0.221549
      9         16           0       -2.542989   -1.061056    0.427134
     10          6           0       -1.430888    0.200583   -0.088235
     11          6           0        0.013627    0.002354   -0.061321
     12          6           0        0.884843    1.013759    0.328739
     13          7           0        2.238164    0.942557    0.349728
     14          6           0        2.881141   -0.167370    0.004691
     15          6           0        4.325128   -0.151400    0.091080
     16          6           0        5.254518   -1.131947   -0.187857
     17          6           0        6.609665   -0.748784    0.025811
     18          6           0        6.781095    0.534108    0.478984
     19         34           0        5.154445    1.431522    0.690376
     20          6           0        2.106267   -1.316296   -0.402594
     21          7           0        2.571953   -2.513666   -0.773351
     22         16           0        1.261924   -3.437807   -1.127906
     23          7           0        0.065056   -2.354896   -0.827766
     24          6           0        0.660450   -1.223334   -0.432052
     25          6           0       -5.259888   -0.490296    0.510463
     26          6           0       -6.513040    0.070566    0.424492
     27          6           0       -7.438983   -0.925732    0.862682
     28          6           0       -6.696351   -2.023878    1.185161
     29          8           0       -5.371866   -1.776268    0.977559
     30          1           0       -2.385001    4.524073   -1.661980
     31          1           0       -0.629819    2.783684   -1.223341
     32          1           0        0.477404    1.957338    0.678123
     33          1           0        4.962768   -2.111910   -0.542712
     34          1           0        7.440882   -1.422379   -0.155667
     35          1           0        7.718655    1.024139    0.704317
     36          1           0       -6.747224    1.070056    0.089053
     37          1           0       -8.513775   -0.835847    0.927666
     38          1           0       -6.938513   -3.007503    1.555368
 ---------------------------------------------------------------------

 SCF Done:  E(RB3LYP) =  -4455.39557379     A.U. after    2 cycles

 The electronic state is 1-A.
 Alpha  occ. eigenvalues -- -453.89930 -88.99687 -88.92146 -66.14203 -57.49831
 Alpha  occ. eigenvalues --  -52.17155 -52.17041 -52.16796 -19.23437 -14.39634
 Alpha  occ. eigenvalues --  -14.39122 -14.35643 -10.26829 -10.26740 -10.26606
 Alpha  occ. eigenvalues --  -10.26544 -10.25487 -10.24566 -10.24432 -10.24077
 Alpha  occ. eigenvalues --  -10.23606 -10.23143 -10.22698 -10.21725 -10.21583
 Alpha  occ. eigenvalues --  -10.20693 -10.20691 -10.20599 -10.20509 -10.19242
 Alpha  occ. eigenvalues --  -10.19073  -8.04988  -7.97941  -7.74117  -6.01546
 Alpha  occ. eigenvalues --   -6.00962  -6.00747  -5.94400  -5.93999  -5.93629
 Alpha  occ. eigenvalues --   -5.78276  -5.77889  -5.77357  -5.28928  -3.64823
 Alpha  occ. eigenvalues --   -3.64765  -3.64758  -2.13886  -2.13834  -2.13348
 Alpha  occ. eigenvalues --   -2.13039  -2.12995  -1.12779  -1.04249  -0.96619
 Alpha  occ. eigenvalues --   -0.91727  -0.89816  -0.86771  -0.83008  -0.81834
 Alpha  occ. eigenvalues --   -0.81525  -0.80087  -0.78025  -0.74616  -0.72632
 Alpha  occ. eigenvalues --   -0.72079  -0.70884  -0.68131  -0.64967  -0.63835
 Alpha  occ. eigenvalues --   -0.62751  -0.61286  -0.59364  -0.56930  -0.56494
 Alpha  occ. eigenvalues --   -0.56186  -0.55565  -0.53143  -0.52687  -0.52183
 Alpha  occ. eigenvalues --   -0.50946  -0.49532  -0.48469  -0.47594  -0.47013
 Alpha  occ. eigenvalues --   -0.45752  -0.44725  -0.43228  -0.42223  -0.42017
 Alpha  occ. eigenvalues --   -0.41436  -0.41095  -0.41052  -0.40635  -0.40215
 Alpha  occ. eigenvalues --   -0.39863  -0.39085  -0.38011  -0.37464  -0.36666
 Alpha  occ. eigenvalues --   -0.35896  -0.35067  -0.34789  -0.33915  -0.33720
 Alpha  occ. eigenvalues --   -0.32451  -0.31996  -0.31278  -0.30286  -0.29751
 Alpha  occ. eigenvalues --   -0.29163  -0.28160  -0.27164  -0.24901  -0.24003
 Alpha  occ. eigenvalues --   -0.23447  -0.20361
 Alpha virt. eigenvalues --   -0.11780  -0.06570  -0.05337  -0.04567  -0.02020
 Alpha virt. eigenvalues --   -0.01797  -0.00824  -0.00662  -0.00322  -0.00021
 Alpha virt. eigenvalues --    0.00610   0.00735   0.01012   0.01358   0.01471

 Mulliken atomic charges:
              1
     1  Si   0.946608
     2  H   -0.115552
     3  H   -0.104134
     4  C   -0.605466
     5  C    0.117311
     6  C    1.065788
     7  C    0.131705
     8  C   -1.349761
     9  S    0.278462
    10  C   -0.708410
    11  C   -0.116027
    12  C   -0.856004
    13  N   -0.014721
    14  C   -0.301732
    15  C   -0.025433
    16  C   -0.879600
    17  C   -0.331004
    18  C   -0.166572
    19  Se   0.165828
    20  C    0.892928
    21  N   -0.492294
    22  S    0.960368
    23  N   -0.339115
    24  C    0.583028
    25  C    0.262781
    26  C   -0.025359
    27  C   -0.154929
    28  C    0.133897
    29  O   -0.238415
    30  H    0.150730
    31  H    0.122932
    32  H    0.166314
    33  H    0.172563
    34  H    0.122236
    35  H    0.192776
    36  H    0.063320
    37  H    0.144867
    38  H    0.150086
 Sum of Mulliken atomic charges =  -0.00000

 Dipole moment (field-independent basis, Debye):
    X=             -0.6615    Y=             -0.4086    Z=             -0.3304  Tot=              0.8448
 Quadrupole moment (field-independent basis, Debye-Ang):
   XX=           -158.2739   YY=           -177.7405   ZZ=           -193.5043
   XY=             -1.5585   XZ=             -3.0820   YZ=             -1.6976

  Exact polarizability: 720.623 -10.981 372.729  -2.383  -3.890 197.287
 Approx polarizability:1048.388 -28.660 701.200   4.093   8.911 333.814

                     1                      2                      3
                     A                      A                      A
 Frequencies --    17.4662                29.6565                33.0534
 Red. masses --     9.6642                 6.4753                 4.5000
 Frc consts  --     0.0017                 0.0034                 0.0029
 IR Inten    --     0.0645                 0.5940                 0.0839

                     4                      5                      6
                     A                      A                      A
 Frequencies --    37.3203                48.7751                76.3083
 Red. masses --     8.5325                 8.4283                 6.8471
 Frc consts  --     0.0070                 0.0118                 0.0235
 IR Inten    --     0.3202                 0.0118                 0.0877

                     7                      8                      9
                     A                      A                      A
 Frequencies --    79.8864               101.8631               115.2127
 Red. masses --     8.2253                 4.6799                 7.1224
 Frc consts  --     0.0309                 0.0286                 0.0557
 IR Inten    --     0.1110                 1.1080                 0.6966

                    10                     11                     12
                     A                      A                      A
 Frequencies --   143.6564               166.0661               171.7730
 Red. masses --     6.3129                 6.7999                 8.1860
 Frc consts  --     0.0768                 0.1105                 0.1423
 IR Inten    --     0.1693                 1.5166                 0.6024

                    13                     14                     15
                     A                      A                      A
 Frequencies --   174.8703               196.4730               202.5566
 Red. masses --    10.7482                 5.8950                 7.6891
 Frc consts  --     0.1937                 0.1341                 0.1859
 IR Inten    --     0.0482                 1.1056                 0.5148

                    16                     17                     18
                     A                      A                      A
 Frequencies --   226.1624               241.4617               282.8008
 Red. masses --     8.1702                 7.5376                 8.1433
 Frc consts  --     0.2462                 0.2589                 0.3837
 IR Inten    --     0.3382                 1.3316                 2.9591

                    19                     20                     21
                     A                      A                      A
 Frequencies --   316.1101               330.8652               367.0115
 Red. masses --     3.2972                 7.1895                 4.6856
 Frc consts  --     0.1941                 0.4637                 0.3719
 IR Inten    --     0.1999                 4.2430                 0.3368

                    22                     23                     24
                     A                      A                      A
 Frequencies --   382.5853               420.5628               432.2963
 Red. masses --     6.6945                 4.9882                10.3387
 Frc consts  --     0.5773                 0.5198                 1.1384
 IR Inten    --     4.3721                 3.9562                 1.5210

                    25                     26                     27
                     A                      A                      A
 Frequencies --   470.2263               478.2052               491.6459
 Red. masses --     9.1039                 8.8660                 6.6527
 Frc consts  --     1.1860                 1.1946                 0.9474
 IR Inten    --     5.1200                 1.7603                 1.7137

                    28                     29                     30
                     A                      A                      A
 Frequencies --   519.2059               525.3943               533.0264
 Red. masses --     5.9292                 6.6162                 8.8712
 Frc consts  --     0.9417                 1.0760                 1.4850
 IR Inten    --     1.0538                 9.2898                 9.5023

                    31                     32                     33
                     A                      A                      A
 Frequencies --   549.0494               583.7225               593.3929
 Red. masses --     4.6066                 3.3993                 2.9633
 Frc consts  --     0.8182                 0.6824                 0.6148
 IR Inten    --    17.2814                 6.8308                 3.5729

                    34                     35                     36
                     A                      A                      A
 Frequencies --   598.1044               608.9708               618.6814
 Red. masses --     2.8735                 3.3353                 5.9769
 Frc consts  --     0.6056                 0.7287                 1.3479
 IR Inten    --     2.9614                 0.3526                24.2924

                    37                     38                     39
                     A                      A                      A
 Frequencies --   625.6464               640.7315               651.9074
 Red. masses --     2.6170                 4.3536                 4.8357
 Frc consts  --     0.6036                 1.0531                 1.2108
 IR Inten    --    14.6298                19.5329                22.7998

                    40                     41                     42
                     A                      A                      A
 Frequencies --   685.1513               686.4182               721.6789
 Red. masses --     6.0913                 4.5018                 1.7097
 Frc consts  --     1.6848                 1.2497                 0.5246
 IR Inten    --     8.1471                 0.3896                22.7237

                    43                     44                     45
                     A                      A                      A
 Frequencies --   721.8162               729.1041               741.6204
 Red. masses --     1.1950                 1.8177                 1.2970
 Frc consts  --     0.3668                 0.5693                 0.4203
 IR Inten    --    55.4290                 3.0617                65.8604

                    46                     47                     48
                     A                      A                      A
 Frequencies --   743.7788               769.4279               792.2755
 Red. masses --     4.9484                 4.1775                 1.9945
 Frc consts  --     1.6129                 1.4571                 0.7376
 IR Inten    --    46.6773                 4.2382                43.6389

                    49                     50                     51
                     A                      A                      A
 Frequencies --   801.3271               807.2488               812.8425
 Red. masses --     5.4584                 1.4092                 5.3540
 Frc consts  --     2.0651                 0.5410                 2.0842
 IR Inten    --    57.1271                 9.6651                18.3400

                    52                     53                     54
                     A                      A                      A
 Frequencies --   839.3785               839.5178               850.8625
 Red. masses --     8.7624                 2.1524                12.5943
 Frc consts  --     3.6374                 0.8938                 5.3721
 IR Inten    --    17.4066                12.4288                25.8618

                    55                     56                     57
                     A                      A                      A
 Frequencies --   869.1007               876.8650               876.9435
 Red. masses --     4.1247                 2.5850                 1.6772
 Frc consts  --     1.8356                 1.1710                 0.7599
 IR Inten    --    34.9187                41.7930                18.3549

                    58                     59                     60
                     A                      A                      A
 Frequencies --   900.2879               901.4217               919.3407
 Red. masses --     7.3597                 5.5604                 8.6085
 Frc consts  --     3.5146                 2.6620                 4.2868
 IR Inten    --    34.9479                 6.3645                 9.6120

                    61                     62                     63
                     A                      A                      A
 Frequencies --   932.6260               958.1557               966.7462
 Red. masses --     1.3832                 1.8814                 2.6421
 Frc consts  --     0.7089                 1.0177                 1.4549
 IR Inten    --     0.1872                15.5660                 9.3419

                    64                     65                     66
                     A                      A                      A
 Frequencies --   973.3334              1002.4773              1029.5723
 Red. masses --     1.0652                 1.3013                 2.8965
 Frc consts  --     0.5946                 0.7705                 1.8090
 IR Inten    --   194.1863                 0.1661                 3.2068

                    67                     68                     69
                     A                      A                      A
 Frequencies --  1047.1827              1047.4170              1069.0147
 Red. masses --     1.6922                 2.5257                 1.7786
 Frc consts  --     1.0933                 1.6326                 1.1975
 IR Inten    --    29.5811                 8.1737                31.9550

                    70                     71                     72
                     A                      A                      A
 Frequencies --  1098.2704              1113.4087              1122.6182
 Red. masses --     1.4449                 2.4577                 1.4306
 Frc consts  --     1.0268                 1.7951                 1.0623
 IR Inten    --     2.4393                 8.9527                 2.7182

                    73                     74                     75
                     A                      A                      A
 Frequencies --  1135.3368              1183.0936              1195.2839
 Red. masses --     2.6836                 1.8848                 4.7347
 Frc consts  --     2.0381                 1.5544                 3.9855
 IR Inten    --    34.3931                 2.0137                19.3299

                    76                     77                     78
                     A                      A                      A
 Frequencies --  1239.1082              1247.9495              1282.6734
 Red. masses --     2.9407                 2.6253                 2.1942
 Frc consts  --     2.6603                 2.4089                 2.1269
 IR Inten    --    15.7632                19.0565                 8.7297

                    79                     80                     81
                     A                      A                      A
 Frequencies --  1290.6584              1324.2218              1335.3101
 Red. masses --     3.0685                 2.8723                 1.8959
 Frc consts  --     3.0116                 2.9676                 1.9918
 IR Inten    --    13.6749                21.9858                 8.0004

                    82                     83                     84
                     A                      A                      A
 Frequencies --  1344.6334              1364.6648              1365.9156
 Red. masses --     5.1124                 2.7118                 5.3820
 Frc consts  --     5.4461                 2.9755                 5.9161
 IR Inten    --     9.8358                33.0355                 3.5078

                    85                     86                     87
                     A                      A                      A
 Frequencies --  1381.7766              1402.1801              1416.9501
 Red. masses --     4.4629                 4.9481                 2.7392
 Frc consts  --     5.0204                 5.7319                 3.2403
 IR Inten    --    10.4838                 7.1166                 8.3448

                    88                     89                     90
                     A                      A                      A
 Frequencies --  1481.7357              1494.6422              1505.2494
 Red. masses --     5.8720                 6.6090                 7.3957
 Frc consts  --     7.5959                 8.6988                 9.8729
 IR Inten    --   265.4402                30.5676               219.2886

                    91                     92                     93
                     A                      A                      A
 Frequencies --  1523.1980              1544.6562              1559.4240
 Red. masses --     7.2293                 6.0944                 6.9694
 Frc consts  --     9.8823                 8.5673                 9.9856
 IR Inten    --   108.3675                51.2468                40.1197

                    94                     95                     96
                     A                      A                      A
 Frequencies --  1570.1480              1585.0950              1589.7152
 Red. masses --     6.6465                 6.4230                 6.8505
 Frc consts  --     9.6544                 9.5082                10.2003
 IR Inten    --    26.1796                96.8729                25.8186

                    97                     98                     99
                     A                      A                      A
 Frequencies --  1619.4779              2215.9074              2221.5677
 Red. masses --     6.6473                 1.0506                 1.0308
 Frc consts  --    10.2718                 3.0393                 2.9974
 IR Inten    --     3.0229               122.3701               211.1164

                   100                    101                    102
                     A                      A                      A
 Frequencies --  3181.4211              3200.5105              3205.3456
 Red. masses --     1.0872                 1.0902                 1.0894
 Frc consts  --     6.4833                 6.5796                 6.5945
 IR Inten    --     7.1207                24.9016                16.7959

                   103                    104                    105
                     A                      A                      A
 Frequencies --  3209.8379              3246.9526              3258.4539
 Red. masses --     1.0959                 1.0931                 1.0964
 Frc consts  --     6.6527                 6.7897                 6.8584
 IR Inten    --     7.4644                 1.3041                 0.4361

                   106                    107                    108
                     A                      A                      A
 Frequencies --  3263.0777              3275.7496              3301.6220
 Red. masses --     1.0911                 1.0980                 1.1039
 Frc consts  --     6.8448                 6.9419                 7.0896
 IR Inten    --     8.5086                 0.1545                 0.2466

 - Thermochemistry -
 -------------------
 Temperature   298.150 Kelvin.  Pressure   1.00000 Atm.
 Atom     1 has atomic number 14 and mass  27.97693

 Molecular mass:   468.92780 amu.
 Principal axes and moments of inertia in atomic units:
                           1         2         3
     Eigenvalues --  6224.12293********************
           X            0.99982  -0.01845  -0.00531
           Y            0.01834   0.99961  -0.02122
           Z            0.00570   0.02112   0.99976
 This molecule is an asymmetric top.
 Rotational symmetry number  1.
 Warning -- assumption of classical behavior for rotation
           may cause significant error
 Rotational temperatures (Kelvin)      0.01392     0.00286     0.00248
 Rotational constants (GHZ):           0.28996     0.05959     0.05166
 Zero-point vibrational energy     663290.3 (Joules/Mol)
                                  158.53019 (Kcal/Mol)
 Warning -- explicit consideration of  36 degrees of freedom as
           vibrations may cause significant error
 Vibrational temperatures:     25.13    42.67    47.56    53.70    70.18
          (Kelvin)            109.79   114.94   146.56   165.77   206.69
                              238.93   247.14   251.60   282.68   291.43
                              325.40   347.41   406.89   454.81   476.04
                              528.05   550.45   605.10   621.98   676.55
                              688.03   707.37   747.02   755.92   766.91
                              789.96   839.85   853.76   860.54   876.17
                              890.14   900.16   921.87   937.95   985.78
                              987.60  1038.33  1038.53  1049.02  1067.02
                             1070.13  1107.03  1139.91  1152.93  1161.45
                             1169.50  1207.68  1207.88  1224.20  1250.44
                             1261.61  1261.72  1295.31  1296.94  1322.72
                             1341.84  1378.57  1390.93  1400.41  1442.34
                             1481.32  1506.66  1507.00  1538.07  1580.16
                             1601.94  1615.20  1633.49  1702.21  1719.74
                             1782.80  1795.52  1845.48  1856.97  1905.26
                             1921.21  1934.63  1963.45  1965.25  1988.07
                             2017.42  2038.67  2131.88  2150.45  2165.72
                             2191.54  2222.41  2243.66  2259.09  2280.60
                             2287.24  2330.06  3188.19  3196.34  4577.35
                             4604.82  4611.77  4618.24  4671.63  4688.18
                             4694.84  4713.07  4750.29

 Zero-point correction=                           0.252634 (Hartree/Particle)
 Thermal correction to Energy=                    0.274936
 Thermal correction to Enthalpy=                  0.275880
 Thermal correction to Gibbs Free Energy=         0.197750
 Sum of electronic and zero-point Energies=          -4455.142940
 Sum of electronic and thermal Energies=             -4455.120638
 Sum of electronic and thermal Enthalpies=           -4455.119693
 Sum of electronic and thermal Free Energies=        -4455.197824

                     E (Thermal)             CV                S
                      KCal/Mol        Cal/Mol-Kelvin    Cal/Mol-Kelvin
 Total                  172.525             86.749            164.440
 Electronic               0.000              0.000              0.000
 Translational            0.889              2.981             44.324
 Rotational               0.889              2.981             37.130
 Vibrational            170.748             80.787             82.985
 Vibration     1          0.593              1.986              6.903
 Vibration     2          0.593              1.984              5.852
 Vibration     3          0.594              1.983              5.637
 Vibration     4          0.594              1.982              5.396
 Vibration     5          0.595              1.978              4.866
 Vibration     6          0.599              1.965              3.984
 Vibration     7          0.600              1.963              3.894
 Vibration     8          0.604              1.948              3.418
 Vibration     9          0.608              1.937              3.179
 Vibration    10          0.616              1.909              2.755
 Vibration    11          0.624              1.884              2.480
 Vibration    12          0.626              1.877              2.416
 Vibration    13          0.627              1.873              2.382
 Vibration    14          0.636              1.845              2.166
 Vibration    15          0.639              1.836              2.110
 Vibration    16          0.650              1.801              1.909
 Vibration    17          0.658              1.777              1.792
 Vibration    18          0.682              1.706              1.517
 Vibration    19          0.703              1.643              1.330
 Vibration    20          0.713              1.614              1.256
 Vibration    21          0.740              1.540              1.092
 Vibration    22          0.752              1.507              1.029
 Vibration    23          0.783              1.426              0.890
 Vibration    24          0.793              1.400              0.851
 Vibration    25          0.827              1.316              0.737
 Vibration    26          0.835              1.298              0.715
 Vibration    27          0.847              1.269              0.679
 Vibration    28          0.874              1.207              0.612
 Vibration    29          0.880              1.194              0.598
 Vibration    30          0.888              1.177              0.580
 Vibration    31          0.904              1.142              0.546
 Vibration    32          0.941              1.067              0.479
 Vibration    33          0.951              1.046              0.461
 Vibration    34          0.956              1.036              0.453
 Vibration    35          0.968              1.013              0.434
 Vibration    36          0.979              0.992              0.419

 Normal termination of Gaussian 09 at Sun Dec 29 13:51:35 2013.
