 Gaussian 09, Revision C.01,
 Gaussian 09:  EM64L-G09RevC.01 23-Sep-2011

 --------------------------------------------
 #B3LYP/6-31++G(d,p) opt scf=direct freq test
 --------------------------------------------

 Geom opt of No.12 candidate from the CEPDB database with SMILE code of
  c1cc2c3c[nH]cc3c3c4oc(cc4ncc3c2s1)-c1cncc2nsnc12, HPC, 20131227, Shuo
  Dai, Gaussian09
 ----------------------------------------------------------------------
 Charge =  0 Multiplicity = 1

 SCF Done:  E(RB3LYP) =  -1912.89962771     A.U. after   23 cycles
 SCF Done:  E(RB3LYP) =  -1912.93487646     A.U. after   17 cycles
 SCF Done:  E(RB3LYP) =  -1912.94321276     A.U. after   17 cycles
 SCF Done:  E(RB3LYP) =  -1912.94472060     A.U. after   13 cycles
 SCF Done:  E(RB3LYP) =  -1912.94476160     A.U. after   11 cycles
 SCF Done:  E(RB3LYP) =  -1912.94476685     A.U. after   11 cycles
 SCF Done:  E(RB3LYP) =  -1912.94477298     A.U. after   10 cycles
 SCF Done:  E(RB3LYP) =  -1912.94477390     A.U. after   10 cycles
 SCF Done:  E(RB3LYP) =  -1912.94477446     A.U. after    9 cycles
 SCF Done:  E(RB3LYP) =  -1912.94477458     A.U. after   10 cycles
 SCF Done:  E(RB3LYP) =  -1912.94477460     A.U. after    8 cycles
 Optimization completed.
    -- Stationary point found.
 Normal termination of Gaussian 09 at Sun Dec 29 00:32:53 2013.

 ----------------------------------------------------------------------
 #N Geom=AllCheck Guess=TCheck SCRF=Check Test GenChk RB3LYP/6-31++G(d,
 p) Freq
 ----------------------------------------------------------------------

 Geom opt of No.12 candidate from the CEPDB database with SMILE code of
  c1cc2c3c[nH]cc3c3c4oc(cc4ncc3c2s1)-c1cncc2nsnc12, HPC, 20131227, Shuo
  Dai, Gaussian09
 ----------------------------------------------------------------------
 Charge =  0 Multiplicity = 1

                         Standard orientation:
 ---------------------------------------------------------------------
 Center     Atomic      Atomic             Coordinates (Angstroms)
 Number     Number       Type             X           Y           Z
 ---------------------------------------------------------------------
      1          6           0       -6.551314   -0.842508    0.000011
      2          6           0       -6.048146    0.426655   -0.000010
      3          6           0       -4.615393    0.454671   -0.000011
      4          6           0       -3.728242    1.589674   -0.000013
      5          6           0       -3.942616    2.959817   -0.000026
      6          7           0       -2.705977    3.563357   -0.000030
      7          1           0       -2.559466    4.561458   -0.000045
      8          6           0       -1.699159    2.636524    0.000000
      9          6           0       -2.300145    1.382636    0.000008
     10          6           0       -1.752502    0.051859    0.000019
     11          6           0       -0.398930   -0.292968    0.000026
     12          8           0        0.663859    0.564014    0.000028
     13          6           0        1.807837   -0.229004    0.000026
     14          6           0        1.478888   -1.559665    0.000049
     15          6           0        0.047114   -1.621304    0.000029
     16          7           0       -0.788455   -2.685115    0.000022
     17          6           0       -2.079830   -2.388512    0.000009
     18          6           0       -2.631198   -1.074263    0.000011
     19          6           0       -4.052822   -0.823849   -0.000001
     20         16           0       -5.301816   -2.053420   -0.000025
     21          6           0        3.070743    0.477901    0.000042
     22          6           0        3.143120    1.865051    0.000072
     23          7           0        4.289894    2.610544    0.000018
     24          6           0        5.456716    2.009022   -0.000050
     25          6           0        5.547095    0.584486   -0.000039
     26          7           0        6.670665   -0.145688    0.000041
     27         16           0        6.195788   -1.715181   -0.000026
     28          7           0        4.561658   -1.523279   -0.000100
     29          6           0        4.335948   -0.203621   -0.000005
     30          1           0       -7.588709   -1.148217    0.000027
     31          1           0       -6.671707    1.313309   -0.000014
     32          1           0       -4.850135    3.543512   -0.000059
     33          1           0       -0.660442    2.924889    0.000038
     34          1           0        2.174961   -2.383600    0.000071
     35          1           0       -2.759100   -3.239095   -0.000001
     36          1           0        2.225168    2.441469    0.000092
     37          1           0        6.357513    2.617445   -0.000042
 ---------------------------------------------------------------------

 SCF Done:  E(RB3LYP) =  -1912.94477460     A.U. after    2 cycles

 The electronic state is 1-A.
 Alpha  occ. eigenvalues --  -89.00065 -88.92060 -19.23419 -14.41606 -14.40006
 Alpha  occ. eigenvalues --  -14.39590 -14.36348 -14.34158 -10.27288 -10.27197
 Alpha  occ. eigenvalues --  -10.26568 -10.26066 -10.25552 -10.24697 -10.24335
 Alpha  occ. eigenvalues --  -10.23437 -10.23287 -10.23217 -10.23182 -10.23147
 Alpha  occ. eigenvalues --  -10.22999 -10.22986 -10.22328 -10.21514 -10.20723
 Alpha  occ. eigenvalues --  -10.20717 -10.20655 -10.20550  -8.05382  -7.97958
 Alpha  occ. eigenvalues --   -6.01933  -6.01348  -6.01148  -5.94396  -5.94023
 Alpha  occ. eigenvalues --   -5.93647  -1.12787  -1.04559  -1.00551  -0.96509
 Alpha  occ. eigenvalues --   -0.95184  -0.91820  -0.90043  -0.85394  -0.83771
 Alpha  occ. eigenvalues --   -0.80987  -0.80292  -0.79778  -0.77379  -0.75564
 Alpha  occ. eigenvalues --   -0.73494  -0.72321  -0.69274  -0.67398  -0.65515
 Alpha  occ. eigenvalues --   -0.64180  -0.63489  -0.61744  -0.60538  -0.58377
 Alpha  occ. eigenvalues --   -0.57533  -0.56112  -0.54682  -0.53948  -0.52753
 Alpha  occ. eigenvalues --   -0.52411  -0.50092  -0.49809  -0.48512  -0.48384
 Alpha  occ. eigenvalues --   -0.47397  -0.47369  -0.46570  -0.44982  -0.44176
 Alpha  occ. eigenvalues --   -0.44041  -0.42918  -0.42157  -0.41834  -0.41006
 Alpha  occ. eigenvalues --   -0.40964  -0.40743  -0.40250  -0.39730  -0.38724
 Alpha  occ. eigenvalues --   -0.38360  -0.36928  -0.36307  -0.35327  -0.35068
 Alpha  occ. eigenvalues --   -0.33883  -0.32620  -0.30738  -0.30013  -0.29229
 Alpha  occ. eigenvalues --   -0.28274  -0.28231  -0.26732  -0.25827  -0.23631
 Alpha  occ. eigenvalues --   -0.22983  -0.20400
 Alpha virt. eigenvalues --   -0.11898  -0.06609  -0.04354  -0.02849  -0.02637
 Alpha virt. eigenvalues --   -0.02301  -0.01980  -0.00569  -0.00513  -0.00273
 Alpha virt. eigenvalues --    0.00406   0.00958   0.01478   0.01865   0.02002

 Mulliken atomic charges:
              1
     1  C   -0.002961
     2  C   -0.840734
     3  C    0.639208
     4  C    0.304748
     5  C   -0.126664
     6  N   -0.069782
     7  H    0.304900
     8  C    0.028289
     9  C   -0.500783
    10  C    0.528031
    11  C    0.156339
    12  O   -0.374728
    13  C    0.450265
    14  C   -0.302617
    15  C   -0.190598
    16  N   -0.197307
    17  C    0.012695
    18  C   -0.027387
    19  C   -0.494422
    20  S   -0.228396
    21  C   -0.069480
    22  C   -0.469441
    23  N   -0.026213
    24  C   -0.161685
    25  C    0.353003
    26  N   -0.399215
    27  S    0.880071
    28  N   -0.476602
    29  C   -0.346423
    30  H    0.199212
    31  H    0.085045
    32  H    0.173660
    33  H    0.270836
    34  H    0.236653
    35  H    0.150263
    36  H    0.351276
    37  H    0.180947
 Sum of Mulliken atomic charges =  -0.00000

 Dipole moment (field-independent basis, Debye):
    X=             -1.9742    Y=              3.8393    Z=             -0.0000  Tot=              4.3172
 Quadrupole moment (field-independent basis, Debye-Ang):
   XX=           -151.2736   YY=           -161.4690   ZZ=           -178.3173
   XY=            -19.0803   XZ=             -0.0000   YZ=             -0.0005

  Exact polarizability: 610.947  18.583 359.555  -0.022   0.026 142.671
 Approx polarizability: 881.443  51.049 733.470  -0.000   0.001 235.574

                     1                      2                      3
                     A                      A                      A
 Frequencies --    18.7729                28.6906                53.9451
 Red. masses --     9.7686                 7.9066                 8.8887
 Frc consts  --     0.0020                 0.0038                 0.0152
 IR Inten    --     0.8170                 0.0012                 0.6055

                     4                      5                      6
                     A                      A                      A
 Frequencies --    78.5186                95.0479               115.5013
 Red. masses --     6.9283                 6.5613                 6.9632
 Frc consts  --     0.0252                 0.0349                 0.0547
 IR Inten    --     0.0239                 0.0467                 3.8592

                     7                      8                      9
                     A                      A                      A
 Frequencies --   121.7943               148.9905               174.6701
 Red. masses --    10.0597                 6.5348                10.1449
 Frc consts  --     0.0879                 0.0855                 0.1824
 IR Inten    --     0.2666                 0.6865                 0.2554

                    10                     11                     12
                     A                      A                      A
 Frequencies --   185.1197               206.7174               229.2391
 Red. masses --     6.0769                 6.5325                 5.3344
 Frc consts  --     0.1227                 0.1645                 0.1652
 IR Inten    --     0.0244                 0.0671                 0.2728

                    13                     14                     15
                     A                      A                      A
 Frequencies --   246.4301               255.0737               307.5934
 Red. masses --     5.4971                 5.1552                 9.6491
 Frc consts  --     0.1967                 0.1976                 0.5379
 IR Inten    --     2.6508                 0.2458                 0.8350

                    16                     17                     18
                     A                      A                      A
 Frequencies --   328.3726               356.8244               363.9996
 Red. masses --     6.5942                 8.0799                 9.4187
 Frc consts  --     0.4189                 0.6061                 0.7353
 IR Inten    --     2.1277                 2.1201                 0.8500

                    19                     20                     21
                     A                      A                      A
 Frequencies --   388.2225               391.1330               429.4352
 Red. masses --     6.8439                10.6484                 7.9765
 Frc consts  --     0.6077                 0.9598                 0.8667
 IR Inten    --     2.3052                 2.4507                 3.8894

                    22                     23                     24
                     A                      A                      A
 Frequencies --   450.6949               493.8062               495.2878
 Red. masses --     7.8275                 6.8952                 7.2654
 Frc consts  --     0.9368                 0.9906                 1.0501
 IR Inten    --     7.6146                11.5132                 0.3893

                    25                     26                     27
                     A                      A                      A
 Frequencies --   501.5617               541.6482               550.6989
 Red. masses --     6.8620                 9.5326                 1.9711
 Frc consts  --     1.0171                 1.6478                 0.3522
 IR Inten    --     1.7966                 1.6761                91.7288

                    28                     29                     30
                     A                      A                      A
 Frequencies --   564.7104               585.7950               589.4197
 Red. masses --     4.1443                 4.9946                 5.6409
 Frc consts  --     0.7787                 1.0098                 1.1546
 IR Inten    --     0.6812                 8.8787                 0.3578

                    31                     32                     33
                     A                      A                      A
 Frequencies --   596.2701               628.5872               632.7904
 Red. masses --     6.6216                 6.9155                 2.0787
 Frc consts  --     1.3871                 1.6099                 0.4904
 IR Inten    --     2.3316                 3.2998                 9.8775

                    34                     35                     36
                     A                      A                      A
 Frequencies --   645.9405               647.4613               649.1245
 Red. masses --     7.7932                 2.2145                 2.5391
 Frc consts  --     1.9158                 0.5470                 0.6303
 IR Inten    --     7.0187                 3.7773                14.2835

                    37                     38                     39
                     A                      A                      A
 Frequencies --   669.9697               673.8971               683.9067
 Red. masses --     7.5092                 1.8393                 5.3833
 Frc consts  --     1.9859                 0.4922                 1.4835
 IR Inten    --     3.7941                 1.2087                 0.0891

                    40                     41                     42
                     A                      A                      A
 Frequencies --   704.0558               725.6763               735.0098
 Red. masses --    10.0379                 1.6238                11.1048
 Frc consts  --     2.9316                 0.5038                 3.5347
 IR Inten    --    11.2711                62.8098                 0.4839

                    43                     44                     45
                     A                      A                      A
 Frequencies --   761.4901               768.9883               772.6280
 Red. masses --     4.1483                 3.6027                 1.9009
 Frc consts  --     1.4173                 1.2552                 0.6686
 IR Inten    --     6.3404                 0.8846                18.8644

                    46                     47                     48
                     A                      A                      A
 Frequencies --   792.4520               807.1345               826.0892
 Red. masses --     6.3772                 6.1620                11.1787
 Frc consts  --     2.3595                 2.3652                 4.4946
 IR Inten    --    14.7009                 3.1453                26.1349

                    49                     50                     51
                     A                      A                      A
 Frequencies --   835.7508               847.3734               862.9779
 Red. masses --    11.5611                 9.6731                 1.4182
 Frc consts  --     4.7578                 4.0923                 0.6223
 IR Inten    --     6.2773                61.8826                24.8689

                    52                     53                     54
                     A                      A                      A
 Frequencies --   878.9662               890.3616               898.4245
 Red. masses --     6.3251                 1.3203                 1.4280
 Frc consts  --     2.8792                 0.6167                 0.6791
 IR Inten    --    26.7734                 1.6958                13.9299

                    55                     56                     57
                     A                      A                      A
 Frequencies --   901.6188               906.3483               912.7364
 Red. masses --     6.3406                 8.6326                 5.9739
 Frc consts  --     3.0369                 4.1781                 2.9322
 IR Inten    --    45.8036                 6.9558                 3.1179

                    58                     59                     60
                     A                      A                      A
 Frequencies --   929.7965               950.4857               956.2854
 Red. masses --     1.4359                 1.4875                 4.0912
 Frc consts  --     0.7314                 0.7918                 2.2043
 IR Inten    --     9.2827                 0.3063                 5.4834

                    61                     62                     63
                     A                      A                      A
 Frequencies --   985.8803              1066.4072              1086.8065
 Red. masses --     7.1122                 2.7275                 2.0084
 Frc consts  --     4.0729                 1.8275                 1.3977
 IR Inten    --    23.4240                 7.4405                49.9710

                    64                     65                     66
                     A                      A                      A
 Frequencies --  1115.2505              1119.5193              1129.4893
 Red. masses --     1.4834                 2.6528                 2.6708
 Frc consts  --     1.0871                 1.9590                 2.0075
 IR Inten    --     2.4989                 2.9076                11.4403

                    67                     68                     69
                     A                      A                      A
 Frequencies --  1160.6757              1164.0807              1181.5830
 Red. masses --     2.1679                 1.5880                 3.8615
 Frc consts  --     1.7207                 1.2679                 3.1764
 IR Inten    --     6.6845                21.3620                24.7114

                    70                     71                     72
                     A                      A                      A
 Frequencies --  1227.9600              1243.8520              1290.0691
 Red. masses --     2.1008                 3.3818                 2.6745
 Frc consts  --     1.8664                 3.0827                 2.6225
 IR Inten    --     0.0521                10.2841                 2.6858

                    73                     74                     75
                     A                      A                      A
 Frequencies --  1302.8456              1306.4457              1319.4753
 Red. masses --     3.2694                 2.7504                 2.2311
 Frc consts  --     3.2697                 2.7658                 2.2887
 IR Inten    --    96.9308                 5.4541                 4.8723

                    76                     77                     78
                     A                      A                      A
 Frequencies --  1347.6712              1359.6335              1370.4449
 Red. masses --     4.2101                 8.0540                 6.1589
 Frc consts  --     4.5051                 8.7721                 6.8152
 IR Inten    --    20.1099                44.4438                32.3583

                    79                     80                     81
                     A                      A                      A
 Frequencies --  1374.0560              1383.0453              1387.2948
 Red. masses --     4.1859                 4.7347                 2.3948
 Frc consts  --     4.6563                 5.3359                 2.7156
 IR Inten    --     0.0970                 3.7043                 5.4699

                    82                     83                     84
                     A                      A                      A
 Frequencies --  1412.3409              1425.8581              1438.3676
 Red. masses --     5.6292                 3.1913                 3.8945
 Frc consts  --     6.6157                 3.8227                 4.7472
 IR Inten    --     5.9342                 7.3928                 6.3978

                    85                     86                     87
                     A                      A                      A
 Frequencies --  1474.0088              1487.5776              1502.8321
 Red. masses --     8.2699                 2.8017                 3.2690
 Frc consts  --    10.5864                 3.6529                 4.3500
 IR Inten    --    27.8058                 3.1020                32.1069

                    88                     89                     90
                     A                      A                      A
 Frequencies --  1510.4123              1542.7945              1548.8726
 Red. masses --     7.1141                 5.0859                 4.9160
 Frc consts  --     9.5622                 7.1324                 6.9485
 IR Inten    --    12.5951                 5.9384                26.5318

                    91                     92                     93
                     A                      A                      A
 Frequencies --  1560.3662              1569.1133              1594.1166
 Red. masses --     6.3032                 7.6254                 6.8597
 Frc consts  --     9.0420                11.0617                10.2706
 IR Inten    --    14.8696                68.2388                10.4537

                    94                     95                     96
                     A                      A                      A
 Frequencies --  1628.6935              1638.2405              1650.6241
 Red. masses --     7.5086                 7.0233                 9.9012
 Frc consts  --    11.7352                11.1058                15.8940
 IR Inten    --   105.8424                11.5838                36.5283

                    97                     98                     99
                     A                      A                      A
 Frequencies --  3162.9426              3189.8989              3219.8855
 Red. masses --     1.0897                 1.0916                 1.0907
 Frc consts  --     6.4230                 6.5443                 6.6623
 IR Inten    --    20.5903                 2.3468                 9.8682

                   100                    101                    102
                     A                      A                      A
 Frequencies --  3222.0189              3262.5919              3281.8823
 Red. masses --     1.0904                 1.0974                 1.0964
 Frc consts  --     6.6693                 6.8823                 6.9574
 IR Inten    --    12.8557                 0.7417                 0.0776

                   103                    104                    105
                     A                      A                      A
 Frequencies --  3298.2654              3298.4662              3671.1012
 Red. masses --     1.0975                 1.0973                 1.0811
 Frc consts  --     7.0345                 7.0339                 8.5844
 IR Inten    --     2.5770                 2.2825               120.7319

 - Thermochemistry -
 -------------------
 Temperature   298.150 Kelvin.  Pressure   1.00000 Atm.
 Atom     1 has atomic number  6 and mass  12.00000

 Molecular mass:   399.02485 amu.
 Principal axes and moments of inertia in atomic units:
                           1         2         3
     Eigenvalues --  4358.72823********************
           X            1.00000  -0.00094   0.00000
           Y            0.00094   1.00000  -0.00000
           Z           -0.00000   0.00000   1.00000
 This molecule is an asymmetric top.
 Rotational symmetry number  1.
 Warning -- assumption of classical behavior for rotation
           may cause significant error
 Rotational temperatures (Kelvin)      0.01987     0.00352     0.00299
 Rotational constants (GHZ):           0.41405     0.07336     0.06232
 Zero-point vibrational energy     665746.2 (Joules/Mol)
                                  159.11715 (Kcal/Mol)
 Warning -- explicit consideration of  31 degrees of freedom as
           vibrations may cause significant error
 Vibrational temperatures:     27.01    41.28    77.61   112.97   136.75
          (Kelvin)            166.18   175.23   214.36   251.31   266.35
                              297.42   329.82   354.56   366.99   442.56
                              472.45   513.39   523.71   558.56   562.75
                              617.86   648.45   710.48   712.61   721.63
                              779.31   792.33   812.49   842.83   848.04
                              857.90   904.40   910.44   929.36   931.55
                              933.94   963.94   969.59   983.99  1012.98
                             1044.09  1057.51  1095.61  1106.40  1111.64
                             1140.16  1161.29  1188.56  1202.46  1219.18
                             1241.63  1264.63  1281.03  1292.63  1297.23
                             1304.03  1313.22  1337.77  1367.54  1375.88
                             1418.46  1534.32  1563.67  1604.59  1610.74
                             1625.08  1669.95  1674.85  1700.03  1766.76
                             1789.62  1856.12  1874.50  1879.68  1898.43
                             1939.00  1956.21  1971.76  1976.96  1989.89
                             1996.01  2032.04  2051.49  2069.49  2120.77
                             2140.29  2162.24  2173.14  2219.73  2228.48
                             2245.02  2257.60  2293.58  2343.32  2357.06
                             2374.88  4550.76  4589.55  4632.69  4635.76
                             4694.14  4721.89  4745.46  4745.75  5281.89

 Zero-point correction=                           0.253569 (Hartree/Particle)
 Thermal correction to Energy=                    0.273158
 Thermal correction to Enthalpy=                  0.274103
 Thermal correction to Gibbs Free Energy=         0.204061
 Sum of electronic and zero-point Energies=          -1912.691205
 Sum of electronic and thermal Energies=             -1912.671616
 Sum of electronic and thermal Enthalpies=           -1912.670672
 Sum of electronic and thermal Free Energies=        -1912.740714

                     E (Thermal)             CV                S
                      KCal/Mol        Cal/Mol-Kelvin    Cal/Mol-Kelvin
 Total                  171.410             79.909            147.416
 Electronic               0.000              0.000              0.000
 Translational            0.889              2.981             43.843
 Rotational               0.889              2.981             36.383
 Vibrational            169.632             73.948             67.189
 Vibration     1          0.593              1.986              6.760
 Vibration     2          0.593              1.984              5.918
 Vibration     3          0.596              1.976              4.667
 Vibration     4          0.600              1.964              3.928
 Vibration     5          0.603              1.953              3.553
 Vibration     6          0.608              1.937              3.174
 Vibration     7          0.609              1.931              3.072
 Vibration     8          0.618              1.904              2.685
 Vibration     9          0.627              1.874              2.385
 Vibration    10          0.631              1.860              2.276
 Vibration    11          0.641              1.830              2.072
 Vibration    12          0.652              1.796              1.885
 Vibration    13          0.661              1.769              1.756
 Vibration    14          0.665              1.754              1.695
 Vibration    15          0.697              1.659              1.375
 Vibration    16          0.712              1.619              1.268
 Vibration    17          0.732              1.561              1.136
 Vibration    18          0.738              1.546              1.105
 Vibration    19          0.756              1.495              1.007
 Vibration    20          0.759              1.489              0.996
 Vibration    21          0.791              1.406              0.861
 Vibration    22          0.809              1.359              0.794
 Vibration    23          0.849              1.264              0.674
 Vibration    24          0.851              1.260              0.670
 Vibration    25          0.857              1.247              0.654
 Vibration    26          0.897              1.158              0.562
 Vibration    27          0.906              1.138              0.543
 Vibration    28          0.921              1.108              0.515
 Vibration    29          0.943              1.062              0.475
 Vibration    30          0.947              1.054              0.468
 Vibration    31          0.954              1.040              0.456

 Optimization completed.
    -- Stationary point found.
 Normal termination of Gaussian 09 at Sun Dec 29 01:42:28 2013.
