 Gaussian 09, Revision C.01,
 Gaussian 09:  EM64L-G09RevC.01 23-Sep-2011

 --------------------------------------------
 #B3LYP/6-31++G(d,p) opt scf=direct freq test
 --------------------------------------------

 Geom opt of No.95 candidate from the CEPDB database with SMILE code of
  [SiH2]1ccc2c1c(sc2-c1ccco1)-c1sc(c2[SiH2]ccc12)-c1nccc2nsnc12, HPC, 2
 0131227, Shuo Dai, Gaussian09
 ----------------------------------------------------------------------
 Charge =  0 Multiplicity = 1

 SCF Done:  E(RB3LYP) =  -2821.00562868     A.U. after   23 cycles
 SCF Done:  E(RB3LYP) =  -2821.04669076     A.U. after   17 cycles
 SCF Done:  E(RB3LYP) =  -2821.06349584     A.U. after   18 cycles
 SCF Done:  E(RB3LYP) =  -2821.06435904     A.U. after   18 cycles
 SCF Done:  E(RB3LYP) =  -2821.06794718     A.U. after   14 cycles
 SCF Done:  E(RB3LYP) =  -2821.06898174     A.U. after   13 cycles
 SCF Done:  E(RB3LYP) =  -2821.06911379     A.U. after   12 cycles
 SCF Done:  E(RB3LYP) =  -2821.06911648     A.U. after   11 cycles
 SCF Done:  E(RB3LYP) =  -2821.06912228     A.U. after   10 cycles
 SCF Done:  E(RB3LYP) =  -2821.06912269     A.U. after   10 cycles
 SCF Done:  E(RB3LYP) =  -2821.07510805     A.U. after   12 cycles
 SCF Done:  E(RB3LYP) =  -2821.07511473     A.U. after   12 cycles
 SCF Done:  E(RB3LYP) =  -2821.07511883     A.U. after   12 cycles
 SCF Done:  E(RB3LYP) =  -2821.07512076     A.U. after   12 cycles
 SCF Done:  E(RB3LYP) =  -2821.07512262     A.U. after   12 cycles
 SCF Done:  E(RB3LYP) =  -2821.07512374     A.U. after   11 cycles
 SCF Done:  E(RB3LYP) =  -2821.07512398     A.U. after   11 cycles
 SCF Done:  E(RB3LYP) =  -2821.07512403     A.U. after   10 cycles
 SCF Done:  E(RB3LYP) =  -2821.07512404     A.U. after   10 cycles
 Optimization completed.
    -- Stationary point found.
 Normal termination of Gaussian 09 at Mon Dec 30 09:04:17 2013.

 ----------------------------------------------------------------------
 #N Geom=AllCheck Guess=TCheck SCRF=Check Test GenChk RB3LYP/6-31++G(d,
 p) Freq
 ----------------------------------------------------------------------

 Geom opt of No.95 candidate from the CEPDB database with SMILE code of
  [SiH2]1ccc2c1c(sc2-c1ccco1)-c1sc(c2[SiH2]ccc12)-c1nccc2nsnc12, HPC, 2
 0131227, Shuo Dai, Gaussian09
 ----------------------------------------------------------------------
 Charge =  0 Multiplicity = 1

                         Standard orientation:
 ---------------------------------------------------------------------
 Center     Atomic      Atomic             Coordinates (Angstroms)
 Number     Number       Type             X           Y           Z
 ---------------------------------------------------------------------
      1         14           0       -2.774090    2.588080    1.702002
      2          1           0       -2.461721    3.885908    1.050586
      3          1           0       -1.979620    2.494836    2.954085
      4          6           0       -4.612503    2.268253    1.910064
      5          6           0       -4.969614    1.156966    1.220035
      6          6           0       -3.896104    0.461164    0.496925
      7          6           0       -2.592327    1.079028    0.588972
      8          6           0       -1.610997    0.358874   -0.047900
      9         16           0       -2.284766   -1.096422   -0.793965
     10          6           0       -3.900048   -0.728316   -0.214719
     11          6           0       -4.979040   -1.638081   -0.512143
     12          6           0       -5.027105   -2.875101   -1.112780
     13          6           0       -6.399099   -3.274508   -1.125331
     14          6           0       -7.097115   -2.263510   -0.534150
     15          8           0       -6.251179   -1.260267   -0.155909
     16          6           0       -0.185728    0.628841   -0.162716
     17         16           0        0.987250   -0.640068    0.165148
     18          6           0        2.334765    0.446339   -0.160827
     19          6           0        1.883176    1.702698   -0.493652
     20         14           0        2.609451    3.354223   -1.002406
     21          1           0        3.394364    3.328748   -2.261027
     22          1           0        3.388945    4.042206    0.056262
     23          6           0        0.869175    4.060362   -1.233739
     24          6           0       -0.060063    3.118597   -0.938826
     25          6           0        0.456430    1.809858   -0.505853
     26          6           0        3.741181    0.068978   -0.088382
     27          7           0        4.630053    1.020192   -0.344591
     28          6           0        5.968327    0.755168   -0.301138
     29          6           0        6.530037   -0.464088   -0.001446
     30          6           0        5.626260   -1.520988    0.282959
     31          7           0        5.923641   -2.789927    0.600780
     32         16           0        4.488733   -3.560996    0.822715
     33          7           0        3.449766   -2.323759    0.525636
     34          6           0        4.204268   -1.258359    0.240654
     35          1           0       -5.344024    2.837921    2.474744
     36          1           0       -5.982732    0.769174    1.188531
     37          1           0       -4.182962   -3.432453   -1.492808
     38          1           0       -6.809525   -4.192809   -1.519856
     39          1           0       -8.141069   -2.104386   -0.314686
     40          1           0        0.569866    5.049638   -1.567785
     41          1           0       -1.131004    3.283685   -1.016869
     42          1           0        6.604537    1.606287   -0.528492
     43          1           0        7.602372   -0.617680    0.019047
 ---------------------------------------------------------------------

 SCF Done:  E(RB3LYP) =  -2821.07512404     A.U. after    2 cycles

 The electronic state is 1-A.
 Alpha  occ. eigenvalues --  -88.99778 -88.92584 -88.92427 -66.14034 -66.13611
 Alpha  occ. eigenvalues --  -19.23450 -14.39807 -14.39154 -14.35857 -10.27329
 Alpha  occ. eigenvalues --  -10.26704 -10.26654 -10.26600 -10.25497 -10.24850
 Alpha  occ. eigenvalues --  -10.24739 -10.24534 -10.24427 -10.24177 -10.22126
 Alpha  occ. eigenvalues --  -10.21564 -10.21475 -10.21238 -10.21095 -10.20634
 Alpha  occ. eigenvalues --  -10.20569 -10.19651 -10.19367 -10.18714 -10.18475
 Alpha  occ. eigenvalues --   -8.05085  -7.98340  -7.98290  -6.01639  -6.01055
 Alpha  occ. eigenvalues --   -6.00848  -5.94792  -5.94748  -5.94396  -5.94357
 Alpha  occ. eigenvalues --   -5.94041  -5.93962  -5.28745  -5.28250  -3.64652
 Alpha  occ. eigenvalues --   -3.64579  -3.64568  -3.64160  -3.64092  -3.64075
 Alpha  occ. eigenvalues --   -1.12692  -1.04268  -0.96687  -0.91555  -0.90787
 Alpha  occ. eigenvalues --   -0.88996  -0.82045  -0.81945  -0.81448  -0.81178
 Alpha  occ. eigenvalues --   -0.80047  -0.78704  -0.75148  -0.72363  -0.71639
 Alpha  occ. eigenvalues --   -0.71071  -0.68303  -0.64802  -0.64179  -0.62622
 Alpha  occ. eigenvalues --   -0.61981  -0.61133  -0.58918  -0.57193  -0.56718
 Alpha  occ. eigenvalues --   -0.55704  -0.54704  -0.54442  -0.52844  -0.51144
 Alpha  occ. eigenvalues --   -0.50273  -0.49058  -0.48557  -0.48304  -0.47651
 Alpha  occ. eigenvalues --   -0.47010  -0.46188  -0.44040  -0.43507  -0.42968
 Alpha  occ. eigenvalues --   -0.42508  -0.42221  -0.42145  -0.41593  -0.40905
 Alpha  occ. eigenvalues --   -0.40322  -0.40211  -0.39392  -0.38994  -0.38795
 Alpha  occ. eigenvalues --   -0.37550  -0.36776  -0.35969  -0.35758  -0.35027
 Alpha  occ. eigenvalues --   -0.34512  -0.33812  -0.33434  -0.32292  -0.31477
 Alpha  occ. eigenvalues --   -0.31248  -0.31176  -0.30978  -0.30106  -0.30021
 Alpha  occ. eigenvalues --   -0.29028  -0.28218  -0.27761  -0.24623  -0.24203
 Alpha  occ. eigenvalues --   -0.23132  -0.20331
 Alpha virt. eigenvalues --   -0.11851  -0.07281  -0.05867  -0.04993  -0.02543
 Alpha virt. eigenvalues --   -0.02140  -0.01784  -0.00784  -0.00698  -0.00552
 Alpha virt. eigenvalues --    0.00018   0.00352   0.00576   0.00666   0.00980

 Mulliken atomic charges:
              1
     1  Si   0.896792
     2  H   -0.087439
     3  H   -0.080630
     4  C   -0.312431
     5  C   -0.350080
     6  C    0.774819
     7  C   -0.482765
     8  C   -0.709512
     9  S   -0.057779
    10  C   -0.465332
    11  C    0.280950
    12  C   -0.057443
    13  C   -0.179030
    14  C    0.170932
    15  O   -0.242413
    16  C   -0.466322
    17  S    0.124382
    18  C   -1.293490
    19  C   -0.425837
    20  Si   1.166704
    21  H   -0.109410
    22  H   -0.124642
    23  C   -0.266965
    24  C    0.013288
    25  C    1.129196
    26  C    0.023433
    27  N   -0.087469
    28  C    0.151870
    29  C   -0.463892
    30  C   -0.037526
    31  N   -0.402111
    32  S    0.873100
    33  N   -0.456554
    34  C    0.282350
    35  H    0.149607
    36  H    0.144055
    37  H    0.131085
    38  H    0.139580
    39  H    0.146653
    40  H    0.153104
    41  H    0.084405
    42  H    0.147228
    43  H    0.175536
 Sum of Mulliken atomic charges =  -0.00000

 Dipole moment (field-independent basis, Debye):
    X=             -1.0833    Y=             -0.7948    Z=             -0.1625  Tot=              1.3534
 Quadrupole moment (field-independent basis, Debye-Ang):
   XX=           -181.5902   YY=           -197.4228   ZZ=           -211.9233
   XY=              7.8428   XZ=             -0.6833   YZ=              3.0521

  Exact polarizability: 671.028  27.290 471.066  -1.120  12.349 241.442
 Approx polarizability: 965.673  44.074 852.053  -9.980  24.909 413.997

                     1                      2                      3
                     A                      A                      A
 Frequencies --    16.2989                24.7414                27.8887
 Red. masses --     8.1365                 7.0946                 6.9519
 Frc consts  --     0.0013                 0.0026                 0.0032
 IR Inten    --     0.0360                 0.0981                 0.0050

                     4                      5                      6
                     A                      A                      A
 Frequencies --    33.0161                41.3933                66.4358
 Red. masses --     5.7103                 8.0601                 8.3772
 Frc consts  --     0.0037                 0.0081                 0.0218
 IR Inten    --     0.8246                 0.0513                 0.1822

                     7                      8                      9
                     A                      A                      A
 Frequencies --    71.6623                83.9013               105.4543
 Red. masses --     8.0503                 4.3426                 5.6241
 Frc consts  --     0.0244                 0.0180                 0.0368
 IR Inten    --     0.5766                 0.0562                 0.3118

                    10                     11                     12
                     A                      A                      A
 Frequencies --   126.2390               138.5705               145.8253
 Red. masses --     5.3166                 3.9082                 9.8317
 Frc consts  --     0.0499                 0.0442                 0.1232
 IR Inten    --     0.2119                 0.0222                 0.4739

                    13                     14                     15
                     A                      A                      A
 Frequencies --   169.6595               171.9401               175.8647
 Red. masses --     8.3176                 7.4173                 7.5363
 Frc consts  --     0.1411                 0.1292                 0.1373
 IR Inten    --     0.5444                 0.6198                 1.0873

                    16                     17                     18
                     A                      A                      A
 Frequencies --   183.8230               203.6599               220.4633
 Red. masses --     6.0506                 9.6958                 6.5910
 Frc consts  --     0.1205                 0.2369                 0.1887
 IR Inten    --     1.1887                 0.0728                 0.7131

                    19                     20                     21
                     A                      A                      A
 Frequencies --   261.4683               297.0052               301.7875
 Red. masses --     5.3063                 4.4256                 6.2845
 Frc consts  --     0.2137                 0.2300                 0.3372
 IR Inten    --     2.1184                 5.1940                 1.4005

                    22                     23                     24
                     A                      A                      A
 Frequencies --   321.2716               327.1987               361.2460
 Red. masses --     4.7699                 2.8722                 7.9093
 Frc consts  --     0.2901                 0.1812                 0.6081
 IR Inten    --     1.7402                 0.3505                 1.5095

                    25                     26                     27
                     A                      A                      A
 Frequencies --   378.5084               387.3660               412.3869
 Red. masses --     4.6295                 6.8265                 6.2937
 Frc consts  --     0.3908                 0.6035                 0.6306
 IR Inten    --     8.2581                 6.2025                 7.6538

                    28                     29                     30
                     A                      A                      A
 Frequencies --   435.0892               451.7466               475.6144
 Red. masses --     4.7168                 8.3362                 8.5167
 Frc consts  --     0.5261                 1.0023                 1.1351
 IR Inten    --     1.7319                10.4936                 5.8311

                    31                     32                     33
                     A                      A                      A
 Frequencies --   479.0511               486.5430               506.0220
 Red. masses --     7.3529                 7.8307                 8.5989
 Frc consts  --     0.9942                 1.0922                 1.2973
 IR Inten    --     1.9247                 5.0185                18.1372

                    34                     35                     36
                     A                      A                      A
 Frequencies --   523.3207               531.0441               539.5992
 Red. masses --     6.2156                 8.6439                 9.0312
 Frc consts  --     1.0029                 1.4362                 1.5493
 IR Inten    --     6.3729                 3.2425                16.1067

                    37                     38                     39
                     A                      A                      A
 Frequencies --   559.4725               565.3645               596.0715
 Red. masses --     3.1668                 4.9054                 1.6064
 Frc consts  --     0.5840                 0.9238                 0.3363
 IR Inten    --     7.4206                 5.5637                 2.2292

                    40                     41                     42
                     A                      A                      A
 Frequencies --   598.5165               607.8295               608.7722
 Red. masses --     2.8245                 1.8900                 5.2808
 Frc consts  --     0.5961                 0.4114                 1.1531
 IR Inten    --     8.9521                17.4949                 8.9790

                    43                     44                     45
                     A                      A                      A
 Frequencies --   620.7414               631.3076               653.9531
 Red. masses --     2.0106                 2.5426                 7.1987
 Frc consts  --     0.4565                 0.5970                 1.8138
 IR Inten    --    38.2536                 8.5561                20.8011

                    46                     47                     48
                     A                      A                      A
 Frequencies --   674.1533               680.5475               682.4785
 Red. masses --     5.8265                 6.4096                 4.4288
 Frc consts  --     1.5602                 1.7490                 1.2154
 IR Inten    --     2.5468                 2.6634                 1.0975

                    49                     50                     51
                     A                      A                      A
 Frequencies --   719.1173               726.1118               729.9962
 Red. masses --     2.3156                 1.5897                 2.5151
 Frc consts  --     0.7055                 0.4938                 0.7897
 IR Inten    --    46.3580                26.9242                 5.9626

                    52                     53                     54
                     A                      A                      A
 Frequencies --   735.7761               737.9548               741.0355
 Red. masses --     1.4424                 1.6717                 1.7654
 Frc consts  --     0.4601                 0.5364                 0.5712
 IR Inten    --    58.3770                24.0715                 6.9327

                    55                     56                     57
                     A                      A                      A
 Frequencies --   785.8266               792.5902               794.5953
 Red. masses --     4.4301                 2.0714                 5.8447
 Frc consts  --     1.6118                 0.7667                 2.1742
 IR Inten    --     9.8139                57.8834                 3.1121

                    58                     59                     60
                     A                      A                      A
 Frequencies --   795.5605               799.6866               809.6110
 Red. masses --     4.5968                 2.3032                 1.3756
 Frc consts  --     1.7142                 0.8678                 0.5313
 IR Inten    --    20.4830                45.4078                21.8082

                    61                     62                     63
                     A                      A                      A
 Frequencies --   825.9646               829.7716               833.2296
 Red. masses --     1.5087                10.7589                 7.0714
 Frc consts  --     0.6064                 4.3645                 2.8926
 IR Inten    --    28.1223                13.5865                19.6433

                    64                     65                     66
                     A                      A                      A
 Frequencies --   856.3833               863.5914               879.7440
 Red. masses --     3.2494                 2.2075                 1.3274
 Frc consts  --     1.4041                 0.9700                 0.6053
 IR Inten    --    90.2731               164.7640                 0.0603

                    67                     68                     69
                     A                      A                      A
 Frequencies --   891.0407               892.6133               902.5816
 Red. masses --     8.7248                 6.6753                 6.9587
 Frc consts  --     4.0813                 3.1336                 3.3400
 IR Inten    --    42.0113                 4.4628                20.0228

                    70                     71                     72
                     A                      A                      A
 Frequencies --   918.0291               930.0012               953.5603
 Red. masses --     6.6619                 7.8168                 1.0610
 Frc consts  --     3.3079                 3.9833                 0.5684
 IR Inten    --    36.6055                 5.0623               128.6209

                    73                     74                     75
                     A                      A                      A
 Frequencies --   967.7484               968.7051               984.9184
 Red. masses --     4.6421                 1.0717                 1.3550
 Frc consts  --     2.5615                 0.5925                 0.7744
 IR Inten    --     8.9829               131.1327                 0.2501

                    76                     77                     78
                     A                      A                      A
 Frequencies --   998.3026               999.7031              1004.4888
 Red. masses --     1.4098                 3.2686                 1.2981
 Frc consts  --     0.8278                 1.9246                 0.7717
 IR Inten    --     5.2587                 7.3365                 1.4752

                    79                     80                     81
                     A                      A                      A
 Frequencies --  1038.0940              1053.3485              1083.5508
 Red. masses --     2.1950                 1.7367                 2.2786
 Frc consts  --     1.3936                 1.1354                 1.5762
 IR Inten    --    22.8140                18.2990                44.1952

                    82                     83                     84
                     A                      A                      A
 Frequencies --  1111.1432              1121.3770              1124.0863
 Red. masses --     2.9893                 1.2603                 1.2950
 Frc consts  --     2.1745                 0.9338                 0.9641
 IR Inten    --    12.3644                 7.7889                 3.9278

                    85                     86                     87
                     A                      A                      A
 Frequencies --  1143.9102              1185.5165              1224.1083
 Red. masses --     3.0268                 1.9518                 6.4489
 Frc consts  --     2.3335                 1.6163                 5.6935
 IR Inten    --    15.8261                 1.9083                10.9978

                    88                     89                     90
                     A                      A                      A
 Frequencies --  1250.9882              1267.6307              1280.0800
 Red. masses --     1.8725                 3.0425                 5.0175
 Frc consts  --     1.7266                 2.8805                 4.8441
 IR Inten    --     5.0776                 7.6050                13.6613

                    91                     92                     93
                     A                      A                      A
 Frequencies --  1325.2316              1327.4864              1337.1734
 Red. masses --     2.1645                 2.9955                 2.1362
 Frc consts  --     2.2397                 3.1102                 2.2505
 IR Inten    --    42.4935                81.3793                12.9361

                    94                     95                     96
                     A                      A                      A
 Frequencies --  1350.0331              1359.6334              1366.8842
 Red. masses --     2.6361                 3.5443                 6.0698
 Frc consts  --     2.8307                 3.8603                 6.6817
 IR Inten    --    41.6536                 5.7857                 3.9585

                    97                     98                     99
                     A                      A                      A
 Frequencies --  1382.2412              1423.2666              1436.9990
 Red. masses --    10.9608                 2.7541                 3.4271
 Frc consts  --    12.3384                 3.2871                 4.1696
 IR Inten    --    33.8242                 0.1725                 2.1438

                   100                    101                    102
                     A                      A                      A
 Frequencies --  1479.0993              1491.6072              1499.1387
 Red. masses --     7.6767                 7.6020                 9.3153
 Frc consts  --     9.8951                 9.9653                12.3348
 IR Inten    --    20.0946               441.1701                27.5855

                   103                    104                    105
                     A                      A                      A
 Frequencies --  1537.5939              1547.6799              1550.9304
 Red. masses --     6.6640                 4.6653                 8.5662
 Frc consts  --     9.2826                 6.5840                12.1401
 IR Inten    --    69.1989                62.1517                41.7106

                   106                    107                    108
                     A                      A                      A
 Frequencies --  1565.4583              1586.6779              1592.0250
 Red. masses --     8.9573                 6.4828                 7.3034
 Frc consts  --    12.9333                 9.6158                10.9062
 IR Inten    --    60.5844                40.6032                 2.7543

                   109                    110                    111
                     A                      A                      A
 Frequencies --  1612.1112              1623.9243              2229.1563
 Red. masses --     7.4631                 7.1949                 1.0486
 Frc consts  --    11.4278                11.1790                 3.0700
 IR Inten    --    36.6499                 1.9099               100.2467

                   112                    113                    114
                     A                      A                      A
 Frequencies --  2233.2645              2239.3292              2240.5764
 Red. masses --     1.0329                 1.0367                 1.0451
 Frc consts  --     3.0352                 3.0630                 3.0913
 IR Inten    --   126.0303               149.9193               117.6554

                   115                    116                    117
                     A                      A                      A
 Frequencies --  3185.2039              3188.0768              3196.8853
 Red. masses --     1.0851                 1.0899                 1.0862
 Frc consts  --     6.4863                 6.5267                 6.5403
 IR Inten    --     2.3674                31.6102                 0.9331

                   118                    119                    120
                     A                      A                      A
 Frequencies --  3204.5954              3217.6233              3232.4922
 Red. masses --     1.0975                 1.0970                 1.0949
 Frc consts  --     6.6408                 6.6917                 6.7405
 IR Inten    --    16.9041                13.4943                 3.5122

                   121                    122                    123
                     A                      A                      A
 Frequencies --  3261.1861              3272.3809              3300.4165
 Red. masses --     1.0915                 1.0975                 1.1041
 Frc consts  --     6.8396                 6.9246                 7.0859
 IR Inten    --    10.8942                 0.0295                 0.2221

 - Thermochemistry -
 -------------------
 Temperature   298.150 Kelvin.  Pressure   1.00000 Atm.
 Atom     1 has atomic number 14 and mass  27.97693

 Molecular mass:   474.97593 amu.
 Principal axes and moments of inertia in atomic units:
                           1         2         3
     Eigenvalues --  9027.56587********************
           X            0.99995   0.00993  -0.00267
           Y           -0.00991   0.99993   0.00639
           Z            0.00273  -0.00636   0.99998
 This molecule is an asymmetric top.
 Rotational symmetry number  1.
 Warning -- assumption of classical behavior for rotation
           may cause significant error
 Rotational temperatures (Kelvin)      0.00959     0.00301     0.00245
 Rotational constants (GHZ):           0.19991     0.06281     0.05106
 Zero-point vibrational energy     741151.0 (Joules/Mol)
                                  177.13934 (Kcal/Mol)
 Warning -- explicit consideration of  43 degrees of freedom as
           vibrations may cause significant error
 Vibrational temperatures:     23.45    35.60    40.13    47.50    59.56
          (Kelvin)             95.59   103.11   120.72   151.73   181.63
                              199.37   209.81   244.10   247.38   253.03
                              264.48   293.02   317.20   376.19   427.32
                              434.20   462.24   470.77   519.75   544.59
                              557.33   593.33   626.00   649.96   684.30
                              689.25   700.03   728.05   752.94   764.05
                              776.36   804.96   813.43   857.61   861.13
                              874.53   875.89   893.11   908.31   940.89
                              969.96   979.15   981.93  1034.65  1044.71
                             1050.30  1058.62  1061.75  1066.18  1130.63
                             1140.36  1143.24  1144.63  1150.57  1164.85
                             1188.38  1193.85  1198.83  1232.14  1242.51
                             1265.75  1282.01  1284.27  1298.61  1320.84
                             1338.06  1371.96  1392.37  1393.75  1417.08
                             1436.33  1438.35  1445.23  1493.58  1515.53
                             1558.99  1598.69  1613.41  1617.31  1645.83
                             1705.69  1761.22  1799.89  1823.84  1841.75
                             1906.71  1909.95  1923.89  1942.39  1956.21
                             1966.64  1988.73  2047.76  2067.52  2128.09
                             2146.09  2156.92  2212.25  2226.76  2231.44
                             2252.34  2282.87  2290.57  2319.47  2336.46
                             3207.25  3213.17  3221.89  3223.69  4582.79
                             4586.93  4599.60  4610.69  4629.44  4650.83
                             4692.11  4708.22  4748.56

 Zero-point correction=                           0.282290 (Hartree/Particle)
 Thermal correction to Energy=                    0.307741
 Thermal correction to Enthalpy=                  0.308685
 Thermal correction to Gibbs Free Energy=         0.224090
 Sum of electronic and zero-point Energies=          -2820.792835
 Sum of electronic and thermal Energies=             -2820.767383
 Sum of electronic and thermal Enthalpies=           -2820.766439
 Sum of electronic and thermal Free Energies=        -2820.851034

                     E (Thermal)             CV                S
                      KCal/Mol        Cal/Mol-Kelvin    Cal/Mol-Kelvin
 Total                  193.111            100.108            178.045
 Electronic               0.000              0.000              0.000
 Translational            0.889              2.981             44.362
 Rotational               0.889              2.981             37.459
 Vibrational            191.333             94.147             96.224
 Vibration     1          0.593              1.986              7.041
 Vibration     2          0.593              1.985              6.212
 Vibration     3          0.593              1.984              5.974
 Vibration     4          0.594              1.983              5.639
 Vibration     5          0.594              1.981              5.191
 Vibration     6          0.598              1.970              4.256
 Vibration     7          0.598              1.968              4.107
 Vibration     8          0.601              1.960              3.797
 Vibration     9          0.605              1.945              3.351
 Vibration    10          0.611              1.927              3.003
 Vibration    11          0.614              1.915              2.824
 Vibration    12          0.617              1.907              2.726
 Vibration    13          0.625              1.880              2.439
 Vibration    14          0.626              1.877              2.414
 Vibration    15          0.628              1.872              2.372
 Vibration    16          0.631              1.862              2.289
 Vibration    17          0.639              1.835              2.100
 Vibration    18          0.647              1.810              1.955
 Vibration    19          0.669              1.743              1.652
 Vibration    20          0.691              1.679              1.434
 Vibration    21          0.694              1.670              1.407
 Vibration    22          0.707              1.633              1.304
 Vibration    23          0.711              1.621              1.274
 Vibration    24          0.735              1.552              1.117
 Vibration    25          0.749              1.516              1.045
 Vibration    26          0.756              1.497              1.010
 Vibration    27          0.776              1.443              0.918
 Vibration    28          0.796              1.394              0.842
 Vibration    29          0.810              1.357              0.791
 Vibration    30          0.832              1.304              0.722
 Vibration    31          0.835              1.297              0.713
 Vibration    32          0.843              1.280              0.693
 Vibration    33          0.861              1.237              0.643
 Vibration    34          0.878              1.198              0.602
 Vibration    35          0.886              1.181              0.585
 Vibration    36          0.895              1.162              0.566
 Vibration    37          0.915              1.119              0.525
 Vibration    38          0.921              1.106              0.513
 Vibration    39          0.954              1.040              0.456
 Vibration    40          0.957              1.035              0.452
 Vibration    41          0.967              1.015              0.436
 Vibration    42          0.968              1.013              0.435
 Vibration    43          0.981              0.988              0.415

 Optimization completed.
    -- Stationary point found.
 Normal termination of Gaussian 09 at Mon Dec 30 11:13:28 2013.
