 Gaussian 09, Revision C.01,
 Gaussian 09:  EM64L-G09RevC.01 23-Sep-2011

 --------------------------------------------
 #B3LYP/6-31++G(d,p) opt scf=direct freq test
 --------------------------------------------

 Geom opt of No.74 candidate from the CEPDB database with SMILE code of
  [SiH2]1ccc2c1csc2-c1cnc(-c2ccc(s2)-c2cccc3cocc23)c2nsnc12, HPC, 20131
 227, Shuo Dai, Gaussian09
 ----------------------------------------------------------------------
 Charge =  0 Multiplicity = 1

 SCF Done:  E(RB3LYP) =  -2607.74197996     A.U. after   27 cycles
 SCF Done:  E(RB3LYP) =  -2607.78057082     A.U. after   16 cycles
 SCF Done:  E(RB3LYP) =  -2607.79464579     A.U. after   17 cycles
 SCF Done:  E(RB3LYP) =  -2607.79535152     A.U. after   15 cycles
 SCF Done:  E(RB3LYP) =  -2607.79710521     A.U. after   15 cycles
 SCF Done:  E(RB3LYP) =  -2607.79821397     A.U. after   17 cycles
 SCF Done:  E(RB3LYP) =  -2607.78903153     A.U. after   19 cycles
 SCF Done:  E(RB3LYP) =  -2607.79923218     A.U. after   19 cycles
 SCF Done:  E(RB3LYP) =  -2607.80019667     A.U. after   15 cycles
 SCF Done:  E(RB3LYP) =  -2607.80159035     A.U. after   15 cycles
 SCF Done:  E(RB3LYP) =  -2607.80199471     A.U. after   15 cycles
 SCF Done:  E(RB3LYP) =  -2607.80210167     A.U. after   14 cycles
 SCF Done:  E(RB3LYP) =  -2607.80214959     A.U. after   13 cycles
 SCF Done:  E(RB3LYP) =  -2607.80216438     A.U. after   13 cycles
 SCF Done:  E(RB3LYP) =  -2607.80216855     A.U. after   12 cycles
 SCF Done:  E(RB3LYP) =  -2607.80217050     A.U. after   12 cycles
 SCF Done:  E(RB3LYP) =  -2607.80217092     A.U. after   11 cycles
 SCF Done:  E(RB3LYP) =  -2607.80217098     A.U. after   10 cycles
 Optimization completed.
    -- Stationary point found.
 Normal termination of Gaussian 09 at Sun Dec 29 20:54:40 2013.

 ----------------------------------------------------------------------
 #N Geom=AllCheck Guess=TCheck SCRF=Check Test GenChk RB3LYP/6-31++G(d,
 p) Freq
 ----------------------------------------------------------------------

 Geom opt of No.74 candidate from the CEPDB database with SMILE code of
  [SiH2]1ccc2c1csc2-c1cnc(-c2ccc(s2)-c2cccc3cocc23)c2nsnc12, HPC, 20131
 227, Shuo Dai, Gaussian09
 ----------------------------------------------------------------------
 Charge =  0 Multiplicity = 1

                         Standard orientation:
 ---------------------------------------------------------------------
 Center     Atomic      Atomic             Coordinates (Angstroms)
 Number     Number       Type             X           Y           Z
 ---------------------------------------------------------------------
      1         14           0       -7.164043   -2.674819    0.722204
      2          1           0       -7.759248   -3.599713   -0.278263
      3          1           0       -8.172867   -2.438765    1.788255
      4          6           0       -5.478171   -3.202199    1.367862
      5          6           0       -4.545429   -2.280734    1.022139
      6          6           0       -5.014465   -1.126253    0.241305
      7          6           0       -6.437806   -1.109381   -0.018602
      8          6           0       -6.820621    0.016113   -0.688708
      9         16           0       -5.487565    1.085211   -1.009175
     10          6           0       -4.343289   -0.015854   -0.247421
     11          6           0       -2.907719    0.252348   -0.241985
     12          6           0       -1.971068   -0.756711   -0.433010
     13          7           0       -0.622773   -0.616370   -0.406506
     14          6           0       -0.051195    0.566388   -0.213410
     15          6           0        1.396104    0.623140   -0.196972
     16          6           0        2.249369    1.703441   -0.038415
     17          6           0        3.615838    1.343327   -0.075976
     18          6           0        3.827480   -0.012261   -0.272379
     19         16           0        2.304822   -0.864051   -0.389758
     20          6           0        5.101152   -0.720948   -0.399180
     21          6           0        5.240563   -1.837985   -1.202031
     22          6           0        6.482648   -2.530721   -1.360065
     23          6           0        7.623806   -2.122197   -0.719843
     24          6           0        7.541600   -0.984065    0.137131
     25          6           0        8.451369   -0.341999    0.948062
     26          8           0        7.840566    0.682244    1.595389
     27          6           0        6.534886    0.725824    1.217302
     28          6           0        6.279977   -0.277496    0.308196
     29          6           0       -0.899707    1.724737   -0.037296
     30          7           0       -0.513127    2.990465    0.150870
     31         16           0       -1.883476    3.884897    0.294683
     32          7           0       -3.008569    2.701280    0.127772
     33          6           0       -2.339542    1.555871   -0.052250
     34          1           0       -5.213490   -4.075904    1.955174
     35          1           0       -3.501044   -2.360638    1.313254
     36          1           0       -7.812488    0.309786   -1.008756
     37          1           0       -2.315193   -1.764496   -0.644349
     38          1           0        1.889570    2.715540    0.089271
     39          1           0        4.422477    2.063247   -0.012318
     40          1           0        4.382494   -2.193575   -1.764424
     41          1           0        6.510063   -3.393924   -2.018155
     42          1           0        8.563799   -2.648985   -0.851841
     43          1           0        9.497505   -0.488155    1.164674
     44          1           0        5.936593    1.486252    1.689836
 ---------------------------------------------------------------------

 SCF Done:  E(RB3LYP) =  -2607.80217098     A.U. after    2 cycles

 The electronic state is 1-A.
 Alpha  occ. eigenvalues --  -88.99681 -88.92112 -88.92030 -66.14021 -19.24482
 Alpha  occ. eigenvalues --  -14.39649 -14.39120 -14.35525 -10.26903 -10.26743
 Alpha  occ. eigenvalues --  -10.26657 -10.25307 -10.25230 -10.24407 -10.24142
 Alpha  occ. eigenvalues --  -10.24022 -10.23633 -10.23560 -10.23113 -10.22800
 Alpha  occ. eigenvalues --  -10.21650 -10.21428 -10.21365 -10.21212 -10.21151
 Alpha  occ. eigenvalues --  -10.20959 -10.20856 -10.20709 -10.20701 -10.19163
 Alpha  occ. eigenvalues --  -10.18965  -8.04983  -7.97930  -7.97894  -6.01542
 Alpha  occ. eigenvalues --   -6.00957  -6.00739  -5.94365  -5.94333  -5.93989
 Alpha  occ. eigenvalues --   -5.93936  -5.93637  -5.93607  -5.28764  -3.64658
 Alpha  occ. eigenvalues --   -3.64599  -3.64592  -1.13340  -1.04246  -0.96597
 Alpha  occ. eigenvalues --   -0.91738  -0.89842  -0.89404  -0.87139  -0.82673
 Alpha  occ. eigenvalues --   -0.80965  -0.80759  -0.79208  -0.78851  -0.75875
 Alpha  occ. eigenvalues --   -0.75240  -0.73545  -0.71846  -0.71294  -0.68330
 Alpha  occ. eigenvalues --   -0.65552  -0.64822  -0.63200  -0.62303  -0.61004
 Alpha  occ. eigenvalues --   -0.59813  -0.58115  -0.57274  -0.56457  -0.54243
 Alpha  occ. eigenvalues --   -0.53811  -0.52712  -0.52232  -0.51699  -0.51225
 Alpha  occ. eigenvalues --   -0.49536  -0.48574  -0.48165  -0.47603  -0.47172
 Alpha  occ. eigenvalues --   -0.45945  -0.45051  -0.44276  -0.43309  -0.42738
 Alpha  occ. eigenvalues --   -0.42391  -0.42062  -0.41348  -0.40732  -0.40172
 Alpha  occ. eigenvalues --   -0.39928  -0.39623  -0.38984  -0.38609  -0.38013
 Alpha  occ. eigenvalues --   -0.37655  -0.36687  -0.36182  -0.35887  -0.35069
 Alpha  occ. eigenvalues --   -0.34972  -0.34351  -0.33773  -0.32424  -0.31281
 Alpha  occ. eigenvalues --   -0.30930  -0.30765  -0.30068  -0.28492  -0.28035
 Alpha  occ. eigenvalues --   -0.27722  -0.26407  -0.25367  -0.23957  -0.22047
 Alpha  occ. eigenvalues --   -0.20181
 Alpha virt. eigenvalues --   -0.11840  -0.07544  -0.05689  -0.04005  -0.03209
 Alpha virt. eigenvalues --   -0.01836  -0.01816  -0.00712  -0.00545  -0.00347
 Alpha virt. eigenvalues --   -0.00011   0.00126   0.00373   0.00673   0.00827

 Mulliken atomic charges:
              1
     1  Si   0.855377
     2  H   -0.108195
     3  H   -0.098605
     4  C   -0.613580
     5  C   -0.100279
     6  C   -0.220932
     7  C   -0.331254
     8  C   -0.001576
     9  S    0.138136
    10  C   -0.268669
    11  C   -0.077295
    12  C   -0.687209
    13  N   -0.102385
    14  C   -0.186768
    15  C   -0.308631
    16  C   -0.313551
    17  C   -0.255907
    18  C   -0.294320
    19  S   -0.015043
    20  C    0.167563
    21  C    0.011545
    22  C   -0.009986
    23  C   -1.023355
    24  C    0.531406
    25  C    0.379028
    26  O   -0.182828
    27  C    0.125407
    28  C   -0.290210
    29  C    1.092539
    30  N   -0.527312
    31  S    0.958991
    32  N   -0.303805
    33  C    0.476078
    34  H    0.127949
    35  H    0.120197
    36  H    0.182811
    37  H    0.176147
    38  H    0.177414
    39  H    0.135126
    40  H    0.106645
    41  H    0.120681
    42  H    0.091860
    43  H    0.167785
    44  H    0.179009
 Sum of Mulliken atomic charges =  -0.00000

 Dipole moment (field-independent basis, Debye):
    X=              1.0568    Y=              0.1661    Z=             -0.0079  Tot=              1.0699
 Quadrupole moment (field-independent basis, Debye-Ang):
   XX=           -181.7721   YY=           -195.5305   ZZ=           -209.6881
   XY=             -4.4159   XZ=             -0.5280   YZ=              1.4644

  Exact polarizability: 854.937  -5.151 409.704  -4.247  11.437 232.886
 Approx polarizability:1173.446 -15.194 774.547   4.377  39.767 405.053

                     1                      2                      3
                     A                      A                      A
 Frequencies --    14.4790                19.6489                29.5710
 Red. masses --     7.8619                 6.9948                10.1092
 Frc consts  --     0.0010                 0.0016                 0.0052
 IR Inten    --     0.0511                 0.0658                 0.1910

                     4                      5                      6
                     A                      A                      A
 Frequencies --    32.9102                43.9228                65.3885
 Red. masses --     7.5341                 5.8439                 6.4797
 Frc consts  --     0.0048                 0.0066                 0.0163
 IR Inten    --     0.1370                 0.1535                 0.3884

                     7                      8                      9
                     A                      A                      A
 Frequencies --    74.0624                99.3607               113.1812
 Red. masses --     7.0650                 7.0952                 6.2130
 Frc consts  --     0.0228                 0.0413                 0.0469
 IR Inten    --     0.5399                 0.1476                 0.2030

                    10                     11                     12
                     A                      A                      A
 Frequencies --   140.7903               143.4842               165.2380
 Red. masses --     8.2947                 6.3242                 7.1431
 Frc consts  --     0.0969                 0.0767                 0.1149
 IR Inten    --     0.4366                 0.5752                 0.0906

                    13                     14                     15
                     A                      A                      A
 Frequencies --   170.5211               175.4401               205.2407
 Red. masses --     6.1755                 8.7785                 6.2181
 Frc consts  --     0.1058                 0.1592                 0.1543
 IR Inten    --     0.8619                 0.3343                 0.4724

                    16                     17                     18
                     A                      A                      A
 Frequencies --   208.4559               228.6103               248.4768
 Red. masses --     8.2207                 5.7953                 4.6652
 Frc consts  --     0.2105                 0.1784                 0.1697
 IR Inten    --     1.4103                 1.3015                 0.6620

                    19                     20                     21
                     A                      A                      A
 Frequencies --   265.5438               301.3784               313.5260
 Red. masses --     5.6164                 8.7490                 6.8442
 Frc consts  --     0.2333                 0.4682                 0.3964
 IR Inten    --     0.2951                 1.3078                 4.2984

                    22                     23                     24
                     A                      A                      A
 Frequencies --   326.8774               353.1809               371.4089
 Red. masses --     6.2814                 6.8135                 2.5518
 Frc consts  --     0.3954                 0.5007                 0.2074
 IR Inten    --     2.6640                 3.4726                 1.4443

                    25                     26                     27
                     A                      A                      A
 Frequencies --   400.1897               419.4418               453.3410
 Red. masses --     5.0131                 7.5270                 5.4540
 Frc consts  --     0.4730                 0.7802                 0.6604
 IR Inten    --     8.1161                10.4744                 5.3665

                    28                     29                     30
                     A                      A                      A
 Frequencies --   464.0975               474.6217               491.6816
 Red. masses --     8.0553                 6.0022                 8.5344
 Frc consts  --     1.0222                 0.7966                 1.2156
 IR Inten    --    17.0521                 2.9632                14.1775

                    31                     32                     33
                     A                      A                      A
 Frequencies --   507.6776               519.5901               535.7588
 Red. masses --     8.9369                 6.3295                 5.9261
 Frc consts  --     1.3571                 1.0068                 1.0022
 IR Inten    --     6.8734                 4.8360                14.8294

                    34                     35                     36
                     A                      A                      A
 Frequencies --   539.1971               548.3907               574.1703
 Red. masses --     8.6975                 3.5238                 3.9086
 Frc consts  --     1.4898                 0.6244                 0.7592
 IR Inten    --    14.4602                 3.9911                 0.7038

                    37                     38                     39
                     A                      A                      A
 Frequencies --   589.1887               595.8683               609.0186
 Red. masses --     2.2920                 5.9336                 2.5665
 Frc consts  --     0.4688                 1.2413                 0.5608
 IR Inten    --     1.9814                 2.8130                 4.7296

                    40                     41                     42
                     A                      A                      A
 Frequencies --   616.1454               618.2661               619.6404
 Red. masses --     4.1187                 3.7757                 3.7076
 Frc consts  --     0.9213                 0.8503                 0.8387
 IR Inten    --    19.5907                20.8537                14.9557

                    43                     44                     45
                     A                      A                      A
 Frequencies --   630.2841               633.6585               671.9660
 Red. masses --     3.8761                 3.3043                 8.0613
 Frc consts  --     0.9072                 0.7817                 2.1446
 IR Inten    --    28.8110                18.3245                 0.4542

                    46                     47                     48
                     A                      A                      A
 Frequencies --   682.1261               685.2082               693.3771
 Red. masses --     2.2799                 2.5779                 7.2253
 Frc consts  --     0.6250                 0.7131                 2.0467
 IR Inten    --     0.2114                 2.0308                 0.6114

                    49                     50                     51
                     A                      A                      A
 Frequencies --   720.2585               730.0778               733.7649
 Red. masses --     1.5672                 1.7182                 2.1519
 Frc consts  --     0.4790                 0.5396                 0.6826
 IR Inten    --    10.1871                10.2463                 3.2941

                    52                     53                     54
                     A                      A                      A
 Frequencies --   735.7145               742.4577               770.9619
 Red. masses --     2.5071                 8.0244                 1.8570
 Frc consts  --     0.7995                 2.6062                 0.6503
 IR Inten    --     0.5952                 6.9519                61.6507

                    55                     56                     57
                     A                      A                      A
 Frequencies --   784.5316               787.0734               794.4868
 Red. masses --     7.1681                 1.3632                 2.0825
 Frc consts  --     2.5994                 0.4975                 0.7745
 IR Inten    --     2.6165                 7.4711                50.5244

                    58                     59                     60
                     A                      A                      A
 Frequencies --   796.6153               805.6481               809.9092
 Red. masses --     6.2474                 4.5534                 2.5549
 Frc consts  --     2.3358                 1.7413                 0.9874
 IR Inten    --    40.9231                 7.8270                36.9563

                    61                     62                     63
                     A                      A                      A
 Frequencies --   830.8765               837.0145               839.6515
 Red. masses --     6.5889                 1.5187                 8.1336
 Frc consts  --     2.6800                 0.6269                 3.3786
 IR Inten    --     5.2039                16.9216                86.0425

                    64                     65                     66
                     A                      A                      A
 Frequencies --   850.0977               862.2480               898.7894
 Red. masses --     6.7550                 2.3840                 5.8700
 Frc consts  --     2.8761                 1.0443                 2.7939
 IR Inten    --    56.1315                51.4097                 2.3576

                    67                     68                     69
                     A                      A                      A
 Frequencies --   902.0180               909.9748               914.9039
 Red. masses --     4.2218                 4.6018                 1.7977
 Frc consts  --     2.0239                 2.2451                 0.8866
 IR Inten    --    39.5246                40.4637                 3.7926

                    70                     71                     72
                     A                      A                      A
 Frequencies --   921.5283               928.7190               954.1818
 Red. masses --     5.0975                 1.4371                 1.4596
 Frc consts  --     2.5505                 0.7303                 0.7830
 IR Inten    --     7.8593                 4.5870                 9.6911

                    73                     74                     75
                     A                      A                      A
 Frequencies --   972.0069               981.4130               982.4022
 Red. masses --     1.0907                 3.9451                 1.3121
 Frc consts  --     0.6071                 2.2388                 0.7461
 IR Inten    --   274.1357                20.1852                 0.1835

                    76                     77                     78
                     A                      A                      A
 Frequencies --  1000.3295              1063.9470              1075.8269
 Red. masses --     1.2945                 2.3528                 1.7755
 Frc consts  --     0.7632                 1.5692                 1.2107
 IR Inten    --     0.4509                12.8300                11.8667

                    79                     80                     81
                     A                      A                      A
 Frequencies --  1087.3577              1109.3435              1124.2662
 Red. masses --     2.4572                 1.3066                 3.2930
 Frc consts  --     1.7117                 0.9474                 2.4523
 IR Inten    --    55.5445                18.4761                 4.1087

                    82                     83                     84
                     A                      A                      A
 Frequencies --  1131.4308              1183.9336              1189.3642
 Red. masses --     2.5561                 5.0487                 3.6076
 Frc consts  --     1.9279                 4.1695                 3.0068
 IR Inten    --    38.4538                19.9358                21.6763

                    85                     86                     87
                     A                      A                      A
 Frequencies --  1197.9887              1212.2373              1229.9360
 Red. masses --     1.4781                 1.7130                 1.8867
 Frc consts  --     1.2499                 1.4832                 1.6816
 IR Inten    --    11.6345                16.6172                12.0126

                    88                     89                     90
                     A                      A                      A
 Frequencies --  1248.2101              1253.4520              1290.4442
 Red. masses --     1.4481                 2.8085                 2.2190
 Frc consts  --     1.3293                 2.5998                 2.1772
 IR Inten    --     1.6944                 2.7472                62.8089

                    91                     92                     93
                     A                      A                      A
 Frequencies --  1301.3292              1325.5713              1334.8557
 Red. masses --     2.0309                 2.7011                 1.9484
 Frc consts  --     2.0264                 2.7964                 2.0455
 IR Inten    --     2.2386                 7.5361                28.3655

                    94                     95                     96
                     A                      A                      A
 Frequencies --  1343.8404              1362.3624              1366.2005
 Red. masses --     4.9271                 3.3809                 3.5807
 Frc consts  --     5.2424                 3.6971                 3.9377
 IR Inten    --    25.8640                18.8791                 6.9179

                    97                     98                     99
                     A                      A                      A
 Frequencies --  1375.4871              1380.7718              1392.0754
 Red. masses --     4.5831                 3.9401                 4.7600
 Frc consts  --     5.1088                 4.4258                 5.4348
 IR Inten    --    12.8435                 1.9444                58.0918

                   100                    101                    102
                     A                      A                      A
 Frequencies --  1403.6772              1448.4099              1486.6952
 Red. masses --     4.9891                 2.0728                 5.5487
 Frc consts  --     5.7917                 2.5620                 7.2258
 IR Inten    --    30.4255                 5.7565               134.0071

                   103                    104                    105
                     A                      A                      A
 Frequencies --  1492.2715              1498.9743              1509.1252
 Red. masses --     7.3358                 6.0473                 9.1744
 Frc consts  --     9.6249                 8.0057                12.3106
 IR Inten    --   464.1472               142.5187               257.9054

                   106                    107                    108
                     A                      A                      A
 Frequencies --  1542.4704              1558.1646              1563.4427
 Red. masses --     7.0309                 6.5617                 6.0243
 Frc consts  --     9.8559                 9.3863                 8.6760
 IR Inten    --    44.6523                22.6194                23.2936

                   109                    110                    111
                     A                      A                      A
 Frequencies --  1578.2718              1586.1812              1586.8484
 Red. masses --     5.6891                 5.1806                 5.7660
 Frc consts  --     8.3494                 7.6796                 8.5546
 IR Inten    --    51.9464                 3.7494                34.4524

                   112                    113                    114
                     A                      A                      A
 Frequencies --  1591.0251              1669.7316              2222.4943
 Red. masses --     6.9684                 6.7919                 1.0511
 Frc consts  --    10.3929                11.1568                 3.0590
 IR Inten    --    18.9463                19.0000               129.7168

                   115                    116                    117
                     A                      A                      A
 Frequencies --  2226.7634              3178.9018              3186.6760
 Red. masses --     1.0306                 1.0871                 1.0864
 Frc consts  --     3.0110                 6.4724                 6.5000
 IR Inten    --   301.2836                 6.8006                10.3525

                   118                    119                    120
                     A                      A                      A
 Frequencies --  3197.6150              3199.5547              3207.1888
 Red. masses --     1.0904                 1.0902                 1.0958
 Frc consts  --     6.5689                 6.5759                 6.6412
 IR Inten    --     8.0635                30.0069                 6.4612

                   121                    122                    123
                     A                      A                      A
 Frequencies --  3209.3676              3231.6560              3244.1202
 Red. masses --     1.0968                 1.0912                 1.0940
 Frc consts  --     6.6561                 6.7141                 6.7836
 IR Inten    --    20.1794                10.2225                 0.2916

                   124                    125                    126
                     A                      A                      A
 Frequencies --  3257.4257              3297.7238              3314.7034
 Red. masses --     1.0953                 1.0967                 1.0978
 Frc consts  --     6.8477                 7.0269                 7.1069
 IR Inten    --     0.6582                 0.2596                 0.6575

 - Thermochemistry -
 -------------------
 Temperature   298.150 Kelvin.  Pressure   1.00000 Atm.
 Atom     1 has atomic number 14 and mass  27.97693

 Molecular mass:   470.99901 amu.
 Principal axes and moments of inertia in atomic units:
                           1         2         3
     Eigenvalues --  6650.65166********************
           X            0.99999   0.00430  -0.00217
           Y           -0.00430   0.99999   0.00098
           Z            0.00218  -0.00097   1.00000
 This molecule is an asymmetric top.
 Rotational symmetry number  1.
 Warning -- assumption of classical behavior for rotation
           may cause significant error
 Rotational temperatures (Kelvin)      0.01302     0.00206     0.00185
 Rotational constants (GHZ):           0.27136     0.04294     0.03846
 Zero-point vibrational energy     786849.5 (Joules/Mol)
                                  188.06155 (Kcal/Mol)
 Warning -- explicit consideration of  42 degrees of freedom as
           vibrations may cause significant error
 Vibrational temperatures:     20.83    28.27    42.55    47.35    63.19
          (Kelvin)             94.08   106.56   142.96   162.84   202.57
                              206.44   237.74   245.34   252.42   295.30
                              299.92   328.92   357.50   382.06   433.62
                              451.09   470.30   508.15   534.37   575.78
                              603.48   652.26   667.73   682.87   707.42
                              730.43   747.57   770.84   775.78   789.01
                              826.10   847.71   857.32   876.24   886.49
                              889.55   891.52   906.84   911.69   966.81
                              981.43   985.86   997.61  1036.29  1050.42
                             1055.72  1058.53  1068.23  1109.24  1128.76
                             1132.42  1143.09  1146.15  1159.15  1165.28
                             1195.44  1204.28  1208.07  1223.10  1240.58
                             1293.16  1297.80  1309.25  1316.34  1325.87
                             1336.22  1372.85  1398.50  1412.03  1413.46
                             1439.25  1530.78  1547.87  1564.46  1596.10
                             1617.57  1627.87  1703.41  1711.23  1723.64
                             1744.14  1769.60  1795.89  1803.44  1856.66
                             1872.32  1907.20  1920.56  1933.48  1960.13
                             1965.66  1979.02  1986.62  2002.88  2019.58
                             2083.94  2139.02  2147.04  2156.69  2171.29
                             2219.27  2241.85  2249.44  2270.78  2282.16
                             2283.12  2289.13  2402.37  3197.67  3203.81
                             4573.72  4584.91  4600.65  4603.44  4614.42
                             4617.56  4649.63  4667.56  4686.70  4744.68
                             4769.11

 Zero-point correction=                           0.299695 (Hartree/Particle)
 Thermal correction to Energy=                    0.324389
 Thermal correction to Enthalpy=                  0.325333
 Thermal correction to Gibbs Free Energy=         0.242094
 Sum of electronic and zero-point Energies=          -2607.502476
 Sum of electronic and thermal Energies=             -2607.477782
 Sum of electronic and thermal Enthalpies=           -2607.476838
 Sum of electronic and thermal Free Energies=        -2607.560077

                     E (Thermal)             CV                S
                      KCal/Mol        Cal/Mol-Kelvin    Cal/Mol-Kelvin
 Total                  203.557             98.372            175.190
 Electronic               0.000              0.000              0.000
 Translational            0.889              2.981             44.337
 Rotational               0.889              2.981             37.814
 Vibrational            201.779             92.410             93.039
 Vibration     1          0.593              1.986              7.276
 Vibration     2          0.593              1.986              6.669
 Vibration     3          0.593              1.984              5.858
 Vibration     4          0.594              1.983              5.646
 Vibration     5          0.595              1.980              5.074
 Vibration     6          0.597              1.971              4.288
 Vibration     7          0.599              1.966              4.042
 Vibration     8          0.604              1.950              3.467
 Vibration     9          0.607              1.939              3.214
 Vibration    10          0.615              1.912              2.793
 Vibration    11          0.616              1.910              2.757
 Vibration    12          0.624              1.885              2.489
 Vibration    13          0.626              1.879              2.430
 Vibration    14          0.627              1.873              2.376
 Vibration    15          0.640              1.832              2.086
 Vibration    16          0.642              1.828              2.057
 Vibration    17          0.651              1.797              1.890
 Vibration    18          0.662              1.765              1.741
 Vibration    19          0.671              1.736              1.625
 Vibration    20          0.693              1.671              1.409
 Vibration    21          0.701              1.648              1.344
 Vibration    22          0.711              1.622              1.275
 Vibration    23          0.729              1.569              1.152
 Vibration    24          0.743              1.531              1.074
 Vibration    25          0.766              1.470              0.962
 Vibration    26          0.782              1.428              0.894
 Vibration    27          0.812              1.354              0.786
 Vibration    28          0.822              1.330              0.754
 Vibration    29          0.831              1.306              0.725
 Vibration    30          0.847              1.268              0.679
 Vibration    31          0.863              1.233              0.639
 Vibration    32          0.875              1.207              0.611
 Vibration    33          0.891              1.171              0.574
 Vibration    34          0.894              1.163              0.567
 Vibration    35          0.904              1.143              0.548
 Vibration    36          0.930              1.087              0.496
 Vibration    37          0.946              1.055              0.469
 Vibration    38          0.954              1.041              0.457
 Vibration    39          0.968              1.013              0.434
 Vibration    40          0.976              0.998              0.423
 Vibration    41          0.978              0.993              0.419
 Vibration    42          0.980              0.990              0.417

 Optimization completed.
    -- Stationary point found.
 Normal termination of Gaussian 09 at Sun Dec 29 23:02:51 2013.
