 Gaussian 09, Revision C.01,
 Gaussian 09:  EM64L-G09RevC.01 23-Sep-2011

 --------------------------------------------
 #B3LYP/6-31++G(d,p) opt scf=direct freq test
 --------------------------------------------

 Geom opt of No.14 candidate from the CEPDB database with SMILE code of
  C1ccc2c1c(sc2-c1cccnc1)-c1[SiH2]c(cc1)-c1cncc2nsnc12, HPC, 20131227,
 Shuo Dai, Gaussian09
 ----------------------------------------------------------------------
 Charge =  0 Multiplicity = 1

 SCF Done:  E(RB3LYP) =  -2114.65385286     A.U. after   19 cycles
 SCF Done:  E(RB3LYP) =  -2114.69771672     A.U. after   18 cycles
 SCF Done:  E(RB3LYP) =  -2114.73335787     A.U. after   18 cycles
 SCF Done:  E(RB3LYP) =  -2114.73932034     A.U. after   18 cycles
 SCF Done:  E(RB3LYP) =  -2114.74140294     A.U. after   18 cycles
 SCF Done:  E(RB3LYP) =  -2114.74216767     A.U. after   18 cycles
 SCF Done:  E(RB3LYP) =  -2114.74248442     A.U. after   16 cycles
 SCF Done:  E(RB3LYP) =  -2114.74270434     A.U. after   18 cycles
 SCF Done:  E(RB3LYP) =  -2114.74281336     A.U. after   14 cycles
 SCF Done:  E(RB3LYP) =  -2114.74287086     A.U. after   14 cycles
 SCF Done:  E(RB3LYP) =  -2114.74261878     A.U. after   18 cycles
 SCF Done:  E(RB3LYP) =  -2114.74316800     A.U. after   18 cycles
 SCF Done:  E(RB3LYP) =  -2114.74330704     A.U. after   17 cycles
 SCF Done:  E(RB3LYP) =  -2114.74332994     A.U. after   15 cycles
 SCF Done:  E(RB3LYP) =  -2114.74333478     A.U. after   14 cycles
 SCF Done:  E(RB3LYP) =  -2114.74333597     A.U. after   12 cycles
 SCF Done:  E(RB3LYP) =  -2114.74333620     A.U. after   12 cycles
 SCF Done:  E(RB3LYP) =  -2114.74333605     A.U. after   11 cycles
 SCF Done:  E(RB3LYP) =  -2114.74333595     A.U. after   10 cycles
 Optimization completed.
    -- Stationary point found.
 Normal termination of Gaussian 09 at Sun Dec 29 05:00:34 2013.

 ----------------------------------------------------------------------
 #N Geom=AllCheck Guess=TCheck SCRF=Check Test GenChk RB3LYP/6-31++G(d,
 p) Freq
 ----------------------------------------------------------------------

 Geom opt of No.14 candidate from the CEPDB database with SMILE code of
  C1ccc2c1c(sc2-c1cccnc1)-c1[SiH2]c(cc1)-c1cncc2nsnc12, HPC, 20131227,
 Shuo Dai, Gaussian09
 ----------------------------------------------------------------------
 Charge =  0 Multiplicity = 1

                         Standard orientation:
 ---------------------------------------------------------------------
 Center     Atomic      Atomic             Coordinates (Angstroms)
 Number     Number       Type             X           Y           Z
 ---------------------------------------------------------------------
      1          6           0       -1.367285    2.044779   -1.245188
      2          6           0       -2.593749    2.720255   -1.832493
      3          6           0       -3.738182    2.117689   -1.440789
      4          6           0       -3.415458    0.994781   -0.560116
      5          6           0       -1.985296    0.922596   -0.439445
      6          6           0       -1.535940   -0.125360    0.318102
      7         16           0       -2.916794   -1.042328    0.911684
      8          6           0       -4.092912   -0.003937    0.108317
      9          6           0       -5.529437   -0.264593    0.213256
     10          6           0       -6.059553   -1.562817    0.318393
     11          6           0       -7.437913   -1.735435    0.410411
     12          6           0       -8.260986   -0.607200    0.382782
     13          7           0       -7.782744    0.641935    0.292657
     14          6           0       -6.458239    0.797720    0.222185
     15          6           0       -0.144001   -0.554290    0.682279
     16         14           0        1.010690   -1.118668   -0.739352
     17          1           0        1.032272   -2.594805   -0.909773
     18          1           0        0.699727   -0.513339   -2.061832
     19          6           0        2.556462   -0.387910    0.059210
     20          6           0        2.165838    0.379202    1.108562
     21          6           0        0.700752    0.518382    1.440628
     22          6           0        3.939469   -0.571193   -0.394928
     23          6           0        4.214309   -1.346377   -1.513617
     24          7           0        5.443329   -1.604462   -2.059652
     25          6           0        6.513469   -1.092197   -1.503267
     26          6           0        6.409866   -0.271783   -0.339478
     27          7           0        7.426178    0.303672    0.315906
     28         16           0        6.755369    1.126513    1.565020
     29          7           0        5.165907    0.782122    1.316417
     30          6           0        5.106975   -0.001468    0.229573
     31          1           0       -0.780662    2.742936   -0.631329
     32          1           0       -0.691540    1.681094   -2.031175
     33          1           0       -2.530240    3.580578   -2.489719
     34          1           0       -4.736693    2.412515   -1.739749
     35          1           0       -5.397345   -2.423949    0.311158
     36          1           0       -7.870509   -2.728082    0.489667
     37          1           0       -9.342572   -0.705526    0.440011
     38          1           0       -6.101597    1.824150    0.189695
     39          1           0       -0.210876   -1.433574    1.335388
     40          1           0        2.879990    0.931224    1.714216
     41          1           0        0.368006    1.529143    1.166155
     42          1           0        0.540910    0.446567    2.524589
     43          1           0        3.391513   -1.819740   -2.043599
     44          1           0        7.484928   -1.302722   -1.943620
 ---------------------------------------------------------------------

 SCF Done:  E(RB3LYP) =  -2114.74333595     A.U. after    2 cycles

 The electronic state is 1-A.
 Alpha  occ. eigenvalues --  -89.00218 -88.91726 -66.14574 -14.40202 -14.39727
 Alpha  occ. eigenvalues --  -14.36418 -14.34180 -10.27133 -10.26678 -10.25721
 Alpha  occ. eigenvalues --  -10.24726 -10.24038 -10.23622 -10.23078 -10.23071
 Alpha  occ. eigenvalues --  -10.22892 -10.22416 -10.21925 -10.21653 -10.21534
 Alpha  occ. eigenvalues --  -10.21320 -10.21257 -10.20882 -10.20731 -10.20723
 Alpha  occ. eigenvalues --  -10.20670 -10.20585 -10.20241  -8.05538  -7.97574
 Alpha  occ. eigenvalues --   -6.02089  -6.01505  -6.01304  -5.94024  -5.93640
 Alpha  occ. eigenvalues --   -5.93266  -5.29292  -3.65185  -3.65130  -3.65116
 Alpha  occ. eigenvalues --   -1.04662  -0.96622  -0.94928  -0.91895  -0.90492
 Alpha  occ. eigenvalues --   -0.85021  -0.84141  -0.82627  -0.81311  -0.79587
 Alpha  occ. eigenvalues --   -0.78402  -0.75517  -0.72895  -0.71499  -0.70036
 Alpha  occ. eigenvalues --   -0.68406  -0.66603  -0.64956  -0.63792  -0.62880
 Alpha  occ. eigenvalues --   -0.62282  -0.58302  -0.57248  -0.55863  -0.54578
 Alpha  occ. eigenvalues --   -0.54009  -0.53040  -0.52206  -0.51403  -0.49566
 Alpha  occ. eigenvalues --   -0.48981  -0.48521  -0.48363  -0.47898  -0.46531
 Alpha  occ. eigenvalues --   -0.45442  -0.44285  -0.43124  -0.42820  -0.41727
 Alpha  occ. eigenvalues --   -0.41597  -0.41162  -0.40827  -0.40718  -0.40575
 Alpha  occ. eigenvalues --   -0.40028  -0.38776  -0.38636  -0.37975  -0.37324
 Alpha  occ. eigenvalues --   -0.37232  -0.36754  -0.36376  -0.35083  -0.33692
 Alpha  occ. eigenvalues --   -0.33389  -0.32834  -0.31807  -0.31042  -0.30151
 Alpha  occ. eigenvalues --   -0.29719  -0.29501  -0.28354  -0.27816  -0.26313
 Alpha  occ. eigenvalues --   -0.24625  -0.23872  -0.21064
 Alpha virt. eigenvalues --   -0.11886  -0.05920  -0.04811  -0.03720  -0.02715
 Alpha virt. eigenvalues --   -0.02293  -0.01726  -0.01373  -0.00961  -0.00674
 Alpha virt. eigenvalues --   -0.00366  -0.00117   0.00516   0.00820   0.00830

 Mulliken atomic charges:
              1
     1  C   -1.040794
     2  C    0.518162
     3  C   -1.008344
     4  C    0.304947
     5  C    0.334341
     6  C   -0.369613
     7  S    0.192238
     8  C   -0.158839
     9  C    0.563486
    10  C    0.045241
    11  C    0.074662
    12  C   -0.223303
    13  N   -0.096841
    14  C   -0.755002
    15  C    0.288017
    16  Si   0.731910
    17  H   -0.050131
    18  H   -0.065039
    19  C   -0.202927
    20  C    0.256312
    21  C   -1.101717
    22  C   -0.213513
    23  C   -0.624548
    24  N   -0.072236
    25  C   -0.259717
    26  C    0.359745
    27  N   -0.403627
    28  S    0.884718
    29  N   -0.479765
    30  C    0.300141
    31  H    0.139565
    32  H    0.148587
    33  H    0.158061
    34  H    0.105456
    35  H    0.124414
    36  H    0.139468
    37  H    0.139965
    38  H    0.165854
    39  H    0.167999
    40  H    0.201827
    41  H    0.210251
    42  H    0.171263
    43  H    0.215326
    44  H    0.184001
 Sum of Mulliken atomic charges =  -0.00000

 Dipole moment (field-independent basis, Debye):
    X=              1.9823    Y=              0.2653    Z=              1.0261  Tot=              2.2478
 Quadrupole moment (field-independent basis, Debye-Ang):
   XX=           -205.8460   YY=           -179.5216   ZZ=           -187.4056
   XY=             19.2590   XZ=             10.2631   YZ=             -5.3790

  Exact polarizability: 544.937  23.954 286.627 -21.110   9.207 260.373
 Approx polarizability: 726.560  35.257 529.093 -49.534  40.730 490.219

                     1                      2                      3
                     A                      A                      A
 Frequencies --    12.9110                15.9286                21.8260
 Red. masses --     7.7557                 6.6468                 7.6868
 Frc consts  --     0.0008                 0.0010                 0.0022
 IR Inten    --     0.0452                 0.3409                 0.2835

                     4                      5                      6
                     A                      A                      A
 Frequencies --    46.2226                64.4038                71.0950
 Red. masses --     4.4546                 5.2062                 6.2244
 Frc consts  --     0.0056                 0.0127                 0.0185
 IR Inten    --     2.1432                 0.5341                 0.1021

                     7                      8                      9
                     A                      A                      A
 Frequencies --    76.7952                87.7291               112.6929
 Red. masses --     6.5346                 5.6078                 5.6623
 Frc consts  --     0.0227                 0.0254                 0.0424
 IR Inten    --     0.1788                 0.4531                 0.1592

                    10                     11                     12
                     A                      A                      A
 Frequencies --   140.9860               146.8834               188.1077
 Red. masses --     5.3880                 5.4299                 4.3946
 Frc consts  --     0.0631                 0.0690                 0.0916
 IR Inten    --     0.5361                 0.2943                 0.0069

                    13                     14                     15
                     A                      A                      A
 Frequencies --   191.2276               204.5010               221.9058
 Red. masses --     4.2311                 5.4471                 4.3739
 Frc consts  --     0.0912                 0.1342                 0.1269
 IR Inten    --     0.2985                 0.5965                 0.0109

                    16                     17                     18
                     A                      A                      A
 Frequencies --   230.5036               248.7640               265.9447
 Red. masses --     4.9007                 6.6290                 2.8926
 Frc consts  --     0.1534                 0.2417                 0.1205
 IR Inten    --     1.2985                 2.2076                 0.1658

                    19                     20                     21
                     A                      A                      A
 Frequencies --   279.7412               310.5683               347.3447
 Red. masses --     4.8207                 7.0246                 2.7346
 Frc consts  --     0.2223                 0.3992                 0.1944
 IR Inten    --     0.9595                 1.0492                 1.1094

                    22                     23                     24
                     A                      A                      A
 Frequencies --   359.3859               388.4671               403.3208
 Red. masses --     3.3352                 2.9503                 3.2920
 Frc consts  --     0.2538                 0.2623                 0.3155
 IR Inten    --     1.0199                 2.7746                 3.7213

                    25                     26                     27
                     A                      A                      A
 Frequencies --   414.5797               439.4838               450.1066
 Red. masses --     3.3922                 4.2301                 6.4202
 Frc consts  --     0.3435                 0.4814                 0.7664
 IR Inten    --     2.1889                 4.1081                 5.9041

                    28                     29                     30
                     A                      A                      A
 Frequencies --   487.5867               503.7278               506.8591
 Red. masses --     5.9355                 7.3786                 8.4574
 Frc consts  --     0.8314                 1.1031                 1.2801
 IR Inten    --     5.3391                 2.1163                12.1033

                    31                     32                     33
                     A                      A                      A
 Frequencies --   510.5887               533.1026               564.2952
 Red. masses --     5.4694                 4.6412                 5.8314
 Frc consts  --     0.8401                 0.7771                 1.0941
 IR Inten    --     3.9415                 3.0785                 9.4494

                    34                     35                     36
                     A                      A                      A
 Frequencies --   583.9144               586.2517               600.8671
 Red. masses --     5.6678                 4.4862                 3.3418
 Frc consts  --     1.1386                 0.9084                 0.7109
 IR Inten    --     0.4556                 7.2117                 1.5709

                    37                     38                     39
                     A                      A                      A
 Frequencies --   608.0504               627.7175               632.1267
 Red. masses --     7.6108                 7.6558                 3.9910
 Frc consts  --     1.6579                 1.7773                 0.9396
 IR Inten    --     0.7722                 1.1976                28.4187

                    40                     41                     42
                     A                      A                      A
 Frequencies --   651.0014               684.8041               689.4795
 Red. masses --     2.7697                 2.3641                 4.1588
 Frc consts  --     0.6916                 0.6532                 1.1648
 IR Inten    --    19.6265                17.8955                 8.3368

                    43                     44                     45
                     A                      A                      A
 Frequencies --   703.1586               712.1201               722.9052
 Red. masses --     1.7980                 6.6323                 2.1222
 Frc consts  --     0.5238                 1.9816                 0.6534
 IR Inten    --    15.9308                 8.4922                23.3501

                    46                     47                     48
                     A                      A                      A
 Frequencies --   741.7980               756.6303               776.6638
 Red. masses --     2.5144                 1.9439                 4.2895
 Frc consts  --     0.8152                 0.6557                 1.5245
 IR Inten    --    14.5241                13.6695                 4.2607

                    49                     50                     51
                     A                      A                      A
 Frequencies --   789.1194               810.8206               818.4061
 Red. masses --     1.7310                 2.8960                 3.3179
 Frc consts  --     0.6351                 1.1218                 1.3093
 IR Inten    --   207.0117                30.6318                16.1950

                    52                     53                     54
                     A                      A                      A
 Frequencies --   826.3981               829.9851               844.9286
 Red. masses --     7.2989                 3.7143                 7.0200
 Frc consts  --     2.9369                 1.5075                 2.9528
 IR Inten    --    40.0669                11.3174                 4.9277

                    55                     56                     57
                     A                      A                      A
 Frequencies --   866.7848               879.8471               902.2604
 Red. masses --     1.8395                 3.6340                 1.5905
 Frc consts  --     0.8143                 1.6575                 0.7629
 IR Inten    --     5.6377                41.5321                11.6700

                    58                     59                     60
                     A                      A                      A
 Frequencies --   909.2018               917.0892               933.0832
 Red. masses --     3.4313                 6.1288                 2.6613
 Frc consts  --     1.6712                 3.0370                 1.3652
 IR Inten    --     2.4683                29.4936                17.1290

                    61                     62                     63
                     A                      A                      A
 Frequencies --   938.3612               943.2425               948.5933
 Red. masses --     3.5927                 1.4279                 1.9652
 Frc consts  --     1.8638                 0.7485                 1.0419
 IR Inten    --     5.7758                 2.1225                15.5705

                    64                     65                     66
                     A                      A                      A
 Frequencies --   952.7127               953.4861               964.4087
 Red. masses --     1.5391                 1.6840                 1.5243
 Frc consts  --     0.8231                 0.9020                 0.8353
 IR Inten    --     1.6919                 4.7952                 0.4231

                    67                     68                     69
                     A                      A                      A
 Frequencies --   969.6247               981.1390               996.1631
 Red. masses --     1.5147                 1.0804                 1.9232
 Frc consts  --     0.8390                 0.6128                 1.1244
 IR Inten    --     1.3937                77.5400                28.2993

                    70                     71                     72
                     A                      A                      A
 Frequencies --   999.5017              1031.6620              1041.3578
 Red. masses --     1.3828                 4.4997                 3.7943
 Frc consts  --     0.8139                 2.8217                 2.4243
 IR Inten    --     0.7412                 4.9459                 6.6088

                    73                     74                     75
                     A                      A                      A
 Frequencies --  1045.9893              1076.4355              1125.9514
 Red. masses --     3.4762                 2.2220                 1.2861
 Frc consts  --     2.2409                 1.5169                 0.9606
 IR Inten    --     6.3654                 0.3039                 3.4158

                    76                     77                     78
                     A                      A                      A
 Frequencies --  1135.2771              1143.9330              1147.3647
 Red. masses --     2.7485                 1.5862                 1.4336
 Frc consts  --     2.0871                 1.2229                 1.1119
 IR Inten    --     6.0022                 1.7379                 7.0629

                    79                     80                     81
                     A                      A                      A
 Frequencies --  1157.1655              1164.7215              1178.1011
 Red. masses --     1.3010                 2.5872                 2.2222
 Frc consts  --     1.0264                 2.0679                 1.8171
 IR Inten    --     2.6312                 9.5600                17.6258

                    82                     83                     84
                     A                      A                      A
 Frequencies --  1226.6565              1230.6715              1280.7504
 Red. masses --     1.4729                 1.2969                 1.7809
 Frc consts  --     1.3058                 1.1572                 1.7212
 IR Inten    --    14.0597                16.3606                 4.0876

                    85                     86                     87
                     A                      A                      A
 Frequencies --  1293.3730              1295.9484              1302.5571
 Red. masses --     4.4657                 3.3031                 2.7987
 Frc consts  --     4.4013                 3.2684                 2.7977
 IR Inten    --     6.8783                 1.7425                10.8927

                    88                     89                     90
                     A                      A                      A
 Frequencies --  1310.1464              1315.5529              1328.6643
 Red. masses --     1.5711                 1.9498                 1.8188
 Frc consts  --     1.5889                 1.9882                 1.8917
 IR Inten    --    14.8567                16.6779                 9.7304

                    91                     92                     93
                     A                      A                      A
 Frequencies --  1345.8979              1367.2528              1371.5713
 Red. masses --     1.7981                 1.4888                 5.3936
 Frc consts  --     1.9191                 1.6398                 5.9781
 IR Inten    --     2.5497                 3.9565                10.1341

                    94                     95                     96
                     A                      A                      A
 Frequencies --  1374.7331              1380.7926              1381.3460
 Red. masses --     2.0516                 2.6526                 3.0776
 Frc consts  --     2.2844                 2.9798                 3.4599
 IR Inten    --     0.5747                 5.6340                 0.1415

                    97                     98                     99
                     A                      A                      A
 Frequencies --  1421.7149              1450.6938              1455.6409
 Red. masses --     2.7674                 2.2755                 1.1519
 Frc consts  --     3.2957                 2.8215                 1.4381
 IR Inten    --    12.5497                18.7342                 9.2335

                   100                    101                    102
                     A                      A                      A
 Frequencies --  1479.4332              1507.1620              1514.2260
 Red. masses --     1.0939                 2.2751                 6.3413
 Frc consts  --     1.4107                 3.0448                 8.5667
 IR Inten    --    14.7195                16.7266                13.3815

                   103                    104                    105
                     A                      A                      A
 Frequencies --  1541.6467              1568.1737              1601.5848
 Red. masses --     5.7482                 8.0095                 5.5634
 Frc consts  --     8.0492                11.6049                 8.4080
 IR Inten    --    15.4566                71.7882                41.1501

                   106                    107                    108
                     A                      A                      A
 Frequencies --  1606.8851              1607.8666              1625.1613
 Red. masses --     5.4997                 5.6870                 6.9020
 Frc consts  --     8.3668                 8.6622                10.7403
 IR Inten    --    25.2704                 3.2191                68.6000

                   109                    110                    111
                     A                      A                      A
 Frequencies --  1631.7390              1641.1312              2220.1196
 Red. masses --     5.7573                 8.7125                 1.0396
 Frc consts  --     9.0317                13.8255                 3.0190
 IR Inten    --     6.6396                 6.2370                91.7887

                   112                    113                    114
                     A                      A                      A
 Frequencies --  2228.4128              3025.2056              3027.1734
 Red. masses --     1.0422                 1.0610                 1.0605
 Frc consts  --     3.0492                 5.7212                 5.7255
 IR Inten    --   111.4991                18.7732                28.2090

                   115                    116                    117
                     A                      A                      A
 Frequencies --  3039.5379              3052.8938              3058.0692
 Red. masses --     1.0883                 1.1000                 1.0965
 Frc consts  --     5.9238                 6.0403                 6.0416
 IR Inten    --     3.8995                 6.5313                16.6551

                   118                    119                    120
                     A                      A                      A
 Frequencies --  3174.3425              3178.9607              3182.0955
 Red. masses --     1.0877                 1.0892                 1.0905
 Frc consts  --     6.4576                 6.4854                 6.5057
 IR Inten    --    13.2565                36.8237                12.4669

                   121                    122                    123
                     A                      A                      A
 Frequencies --  3188.9931              3189.1761              3192.0629
 Red. masses --     1.0900                 1.0926                 1.0902
 Frc consts  --     6.5313                 6.5477                 6.5447
 IR Inten    --    15.5912                 1.3891                 0.2411

                   124                    125                    126
                     A                      A                      A
 Frequencies --  3206.8948              3215.3332              3240.2536
 Red. masses --     1.0971                 1.0882                 1.1014
 Frc consts  --     6.6474                 6.6284                 6.8131
 IR Inten    --    18.3819                 1.9378                12.1241

 - Thermochemistry -
 -------------------
 Temperature   298.150 Kelvin.  Pressure   1.00000 Atm.
 Atom     1 has atomic number  6 and mass  12.00000

 Molecular mass:   416.05857 amu.
 Principal axes and moments of inertia in atomic units:
                           1         2         3
     Eigenvalues --  3636.90183********************
           X            1.00000  -0.00101  -0.00113
           Y            0.00094   0.99793  -0.06431
           Z            0.00119   0.06431   0.99793
 This molecule is an asymmetric top.
 Rotational symmetry number  1.
 Warning -- assumption of classical behavior for rotation
           may cause significant error
 Rotational temperatures (Kelvin)      0.02382     0.00236     0.00233
 Rotational constants (GHZ):           0.49623     0.04919     0.04860
 Zero-point vibrational energy     843526.9 (Joules/Mol)
                                  201.60777 (Kcal/Mol)
 Warning -- explicit consideration of  37 degrees of freedom as
           vibrations may cause significant error
 Vibrational temperatures:     18.58    22.92    31.40    66.50    92.66
          (Kelvin)            102.29   110.49   126.22   162.14   202.85
                              211.33   270.64   275.13   294.23   319.27
                              331.64   357.92   382.63   402.48   446.84
                              499.75   517.08   558.92   580.29   596.49
                              632.32   647.60   701.53   724.75   729.26
                              734.62   767.01   811.89   840.12   843.48
                              864.51   874.85   903.14   909.49   936.64
                              985.28   992.01  1011.69  1024.58  1040.10
                             1067.28  1088.62  1117.44  1135.37  1166.59
                             1177.50  1189.00  1194.16  1215.66  1247.11
                             1265.90  1298.15  1308.14  1319.49  1342.50
                             1350.09  1357.11  1364.81  1370.74  1371.85
                             1387.57  1395.07  1411.64  1433.25  1438.06
                             1484.33  1498.28  1504.94  1548.75  1619.99
                             1633.41  1645.86  1650.80  1664.90  1675.77
                             1695.02  1764.88  1770.66  1842.71  1860.87
                             1864.58  1874.09  1885.01  1892.78  1911.65
                             1936.44  1967.17  1973.38  1977.93  1986.65
                             1987.45  2045.53  2087.22  2094.34  2128.57
                             2168.47  2178.63  2218.08  2256.25  2304.32
                             2311.95  2313.36  2338.24  2347.71  2361.22
                             3194.25  3206.18  4352.59  4355.42  4373.21
                             4392.43  4399.87  4567.17  4573.81  4578.32
                             4588.24  4588.51  4592.66  4614.00  4626.14
                             4662.00

 Zero-point correction=                           0.321282 (Hartree/Particle)
 Thermal correction to Energy=                    0.344406
 Thermal correction to Enthalpy=                  0.345350
 Thermal correction to Gibbs Free Energy=         0.265369
 Sum of electronic and zero-point Energies=          -2114.422054
 Sum of electronic and thermal Energies=             -2114.398930
 Sum of electronic and thermal Enthalpies=           -2114.397986
 Sum of electronic and thermal Free Energies=        -2114.477967

                     E (Thermal)             CV                S
                      KCal/Mol        Cal/Mol-Kelvin    Cal/Mol-Kelvin
 Total                  216.118             91.300            168.336
 Electronic               0.000              0.000              0.000
 Translational            0.889              2.981             43.968
 Rotational               0.889              2.981             36.847
 Vibrational            214.341             85.339             87.521
 Vibration     1          0.593              1.987              7.503
 Vibration     2          0.593              1.986              7.086
 Vibration     3          0.593              1.985              6.461
 Vibration     4          0.595              1.979              4.973
 Vibration     5          0.597              1.971              4.317
 Vibration     6          0.598              1.968              4.123
 Vibration     7          0.599              1.965              3.971
 Vibration     8          0.601              1.958              3.710
 Vibration     9          0.607              1.939              3.222
 Vibration    10          0.615              1.912              2.790
 Vibration    11          0.617              1.906              2.712
 Vibration    12          0.633              1.856              2.246
 Vibration    13          0.634              1.852              2.216
 Vibration    14          0.640              1.833              2.092
 Vibration    15          0.648              1.808              1.943
 Vibration    16          0.652              1.794              1.875
 Vibration    17          0.662              1.765              1.739
 Vibration    18          0.672              1.736              1.622
 Vibration    19          0.680              1.711              1.535
 Vibration    20          0.699              1.654              1.359
 Vibration    21          0.725              1.581              1.178
 Vibration    22          0.734              1.556              1.125
 Vibration    23          0.757              1.495              1.006
 Vibration    24          0.769              1.463              0.951
 Vibration    25          0.778              1.439              0.911
 Vibration    26          0.800              1.384              0.828
 Vibration    27          0.809              1.361              0.795
 Vibration    28          0.844              1.278              0.690
 Vibration    29          0.859              1.242              0.649
 Vibration    30          0.862              1.235              0.641
 Vibration    31          0.866              1.227              0.632
 Vibration    32          0.888              1.177              0.580
 Vibration    33          0.920              1.109              0.515
 Vibration    34          0.941              1.066              0.478
 Vibration    35          0.943              1.061              0.474
 Vibration    36          0.959              1.030              0.448
 Vibration    37          0.967              1.015              0.436

 Optimization completed.
    -- Stationary point found.
 Normal termination of Gaussian 09 at Sun Dec 29 06:45:09 2013.
