 Gaussian 09, Revision C.01,
 Gaussian 09:  EM64L-G09RevC.01 23-Sep-2011

 --------------------------------------------
 #B3LYP/6-31++G(d,p) opt scf=direct freq test
 --------------------------------------------

 Geom opt of No.85 candidate from the CEPDB database with SMILE code of
  C1cccc1-c1cnc(s1)-c1ncc(-c2scc3ccCc23)c2nsnc12, HPC, 20131227, Shuo D
 ai, Gaussian09
 ----------------------------------------------------------------------
 Charge =  0 Multiplicity = 1

 SCF Done:  E(RB3LYP) =  -2182.81194534     A.U. after   25 cycles
 SCF Done:  E(RB3LYP) =  -2182.85082225     A.U. after   18 cycles
 SCF Done:  E(RB3LYP) =  -2182.88048142     A.U. after   29 cycles
 SCF Done:  E(RB3LYP) =  -2182.88968146     A.U. after   17 cycles
 SCF Done:  E(RB3LYP) =  -2182.89355280     A.U. after   18 cycles
 SCF Done:  E(RB3LYP) =  -2182.89496425     A.U. after   16 cycles
 SCF Done:  E(RB3LYP) =  -2182.89576722     A.U. after   19 cycles
 SCF Done:  E(RB3LYP) =  -2182.89612155     A.U. after   15 cycles
 SCF Done:  E(RB3LYP) =  -2182.89625577     A.U. after   16 cycles
 SCF Done:  E(RB3LYP) =  -2182.89629945     A.U. after   13 cycles
 SCF Done:  E(RB3LYP) =  -2182.89633284     A.U. after   12 cycles
 SCF Done:  E(RB3LYP) =  -2182.89634964     A.U. after   13 cycles
 SCF Done:  E(RB3LYP) =  -2182.89635816     A.U. after   13 cycles
 SCF Done:  E(RB3LYP) =  -2182.89636275     A.U. after   12 cycles
 SCF Done:  E(RB3LYP) =  -2182.89636429     A.U. after   11 cycles
 SCF Done:  E(RB3LYP) =  -2182.89636474     A.U. after   11 cycles
 SCF Done:  E(RB3LYP) =  -2182.89636488     A.U. after   10 cycles
 SCF Done:  E(RB3LYP) =  -2182.89636493     A.U. after   10 cycles
 SCF Done:  E(RB3LYP) =  -2182.89636495     A.U. after    9 cycles
 Optimization completed.
    -- Stationary point found.

 1\1\GINC-N246\FOpt\RB3LYP\6-31++G(d,p)\C20H12N4S3\SHUO\30-Dec-2013\0\\
 #B3LYP/6-31++G(d,p) opt scf=direct freq test\\Geom opt of No.85 candid
 ate from the CEPDB database with SMILE code of C1cccc1-c1cnc(s1)-c1ncc
 (-c2scc3ccCc23)c2nsnc12, HPC, 20131227, Shuo Dai, Gaussian09\\0,1\C,0.
 4231257394,0.2979404494,-0.5928175974\C,0.8111574306,-0.8367671682,-1.
 5006478952\C,0.0978699609,-1.9374518405,-1.1629328808\C,-0.7834412051,
 -1.6224576209,-0.0463766809\C,-0.6203761347,-0.3145011595,0.3193903362
 \C,-1.2990540846,0.3960801423,1.3779768552\C,-2.2385323562,-0.07434411

 Normal termination of Gaussian 09 at Mon Dec 30 00:10:20 2013.

 ----------------------------------------------------------------------
 #N Geom=AllCheck Guess=TCheck SCRF=Check Test GenChk RB3LYP/6-31++G(d,
 p) Freq
 ----------------------------------------------------------------------

 Geom opt of No.85 candidate from the CEPDB database with SMILE code of
  C1cccc1-c1cnc(s1)-c1ncc(-c2scc3ccCc23)c2nsnc12, HPC, 20131227, Shuo D
 ai, Gaussian09
 ----------------------------------------------------------------------
 Charge =  0 Multiplicity = 1

                         Standard orientation:
 ---------------------------------------------------------------------
 Center     Atomic      Atomic             Coordinates (Angstroms)
 Number     Number       Type             X           Y           Z
 ---------------------------------------------------------------------
      1          6           0        6.336488    1.206249    0.137857
      2          6           0        7.836253    1.129475    0.053610
      3          6           0        8.198696   -0.143235   -0.234801
      4          6           0        7.007101   -0.972369   -0.358361
      5          6           0        5.889148   -0.213701   -0.144510
      6          6           0        4.511423   -0.646383   -0.172721
      7          6           0        3.996390   -1.919816   -0.384765
      8          7           0        2.650711   -2.047879   -0.359275
      9          6           0        2.050138   -0.898515   -0.128226
     10         16           0        3.176670    0.449966    0.076404
     11          6           0        0.596225   -0.756770   -0.050984
     12          7           0       -0.145438   -1.841161   -0.213754
     13          6           0       -1.497091   -1.777889   -0.161257
     14          6           0       -2.270298   -0.642323    0.064868
     15          6           0       -3.729403   -0.691539    0.116272
     16         16           0       -4.524600   -2.113970    0.810109
     17          6           0       -6.111769   -1.497329    0.466187
     18          6           0       -6.031324   -0.270756   -0.139665
     19          6           0       -6.943829    0.728827   -0.693957
     20          6           0       -6.220106    1.744297   -1.212762
     21          6           0       -4.727513    1.523775   -1.041415
     22          6           0       -4.684437    0.190905   -0.330899
     23          6           0       -1.509061    0.556466    0.259825
     24          7           0       -1.978403    1.781379    0.534651
     25         16           0       -0.674600    2.767660    0.684189
     26          7           0        0.528058    1.683156    0.413745
     27          6           0       -0.061046    0.503242    0.197540
     28          1           0        5.922518    1.916507   -0.592377
     29          1           0        5.999657    1.550037    1.126445
     30          1           0        8.494456    1.976273    0.204471
     31          1           0        9.211773   -0.508832   -0.359432
     32          1           0        7.021990   -2.031619   -0.588739
     33          1           0        4.603545   -2.799751   -0.563737
     34          1           0       -1.996982   -2.728394   -0.329664
     35          1           0       -6.984531   -2.076031    0.736730
     36          1           0       -8.025132    0.654280   -0.688794
     37          1           0       -6.629199    2.626211   -1.693691
     38          1           0       -4.253970    2.317986   -0.453375
     39          1           0       -4.204056    1.500720   -2.007630
 ---------------------------------------------------------------------

 SCF Done:  E(RB3LYP) =  -2182.89636495     A.U. after    2 cycles

 The electronic state is 1-A.
 Alpha  occ. eigenvalues --  -88.99877 -88.92701 -88.91816 -14.39747 -14.39269
 Alpha  occ. eigenvalues --  -14.35181 -14.34715 -10.26810 -10.26645 -10.26596
 Alpha  occ. eigenvalues --  -10.26436 -10.24145 -10.24085 -10.23655 -10.23601
 Alpha  occ. eigenvalues --  -10.22834 -10.22310 -10.22054 -10.21257 -10.20833
 Alpha  occ. eigenvalues --  -10.20679 -10.20588 -10.20498 -10.20439 -10.20424
 Alpha  occ. eigenvalues --  -10.20334 -10.20238  -8.05161  -7.98562  -7.97684
 Alpha  occ. eigenvalues --   -6.01721  -6.01138  -6.00919  -5.94966  -5.94612
 Alpha  occ. eigenvalues --   -5.94297  -5.94132  -5.93738  -5.93381  -1.04361
 Alpha  occ. eigenvalues --   -0.97947  -0.95568  -0.91757  -0.90092  -0.88212
 Alpha  occ. eigenvalues --   -0.84098  -0.82130  -0.81294  -0.80317  -0.76676
 Alpha  occ. eigenvalues --   -0.74473  -0.72513  -0.72032  -0.71211  -0.69246
 Alpha  occ. eigenvalues --   -0.67587  -0.64846  -0.63744  -0.61324  -0.58871
 Alpha  occ. eigenvalues --   -0.57804  -0.56220  -0.55521  -0.54925  -0.53938
 Alpha  occ. eigenvalues --   -0.53114  -0.52296  -0.51321  -0.50702  -0.47771
 Alpha  occ. eigenvalues --   -0.47430  -0.45894  -0.45191  -0.44837  -0.43900
 Alpha  occ. eigenvalues --   -0.42778  -0.42739  -0.42248  -0.41024  -0.40693
 Alpha  occ. eigenvalues --   -0.40208  -0.39784  -0.39380  -0.39178  -0.38569
 Alpha  occ. eigenvalues --   -0.37914  -0.37784  -0.37283  -0.36447  -0.35489
 Alpha  occ. eigenvalues --   -0.34720  -0.33104  -0.32813  -0.32127  -0.30977
 Alpha  occ. eigenvalues --   -0.30086  -0.29768  -0.28356  -0.28263  -0.27103
 Alpha  occ. eigenvalues --   -0.26580  -0.23955  -0.22268  -0.20327
 Alpha virt. eigenvalues --   -0.12054  -0.07301  -0.04549  -0.03088  -0.02404
 Alpha virt. eigenvalues --   -0.02083  -0.01076  -0.00594  -0.00269   0.00029
 Alpha virt. eigenvalues --    0.00362   0.00634   0.01069   0.01357   0.01653

 Mulliken atomic charges:
              1
     1  C   -0.762039
     2  C   -0.028891
     3  C   -0.251632
     4  C   -0.642761
     5  C    0.959342
     6  C    0.322999
     7  C    0.217692
     8  N   -0.025061
     9  C   -1.038947
    10  S    0.477444
    11  C   -0.254306
    12  N   -0.067719
    13  C   -0.014286
    14  C   -0.437019
    15  C   -0.194235
    16  S    0.093988
    17  C    0.113979
    18  C   -0.111226
    19  C   -0.283904
    20  C    0.148105
    21  C   -0.984439
    22  C    0.552811
    23  C   -0.015301
    24  N   -0.401225
    25  S    0.988937
    26  N   -0.435837
    27  C    0.262249
    28  H    0.187443
    29  H    0.189565
    30  H    0.133387
    31  H    0.112831
    32  H    0.086614
    33  H    0.174652
    34  H    0.165800
    35  H    0.170134
    36  H    0.106859
    37  H    0.133659
    38  H    0.182827
    39  H    0.167510
 Sum of Mulliken atomic charges =  -0.00000

 Dipole moment (field-independent basis, Debye):
    X=              0.8862    Y=              3.3220    Z=             -0.2607  Tot=              3.4481
 Quadrupole moment (field-independent basis, Debye-Ang):
   XX=           -140.2979   YY=           -172.4397   ZZ=           -179.7472
   XY=              2.0080   XZ=              2.6599   YZ=             -1.8887

  Exact polarizability: 789.629   0.642 326.707  -6.777  -4.061 177.923
 Approx polarizability:1143.124   0.041 659.119 -26.731  -1.298 303.996

                     1                      2                      3
                     A                      A                      A
 Frequencies --    15.8834                21.4164                31.3114
 Red. masses --     6.2854                 3.4901                 6.5109
 Frc consts  --     0.0009                 0.0009                 0.0038
 IR Inten    --     0.5218                 0.0211                 0.2255

                     4                      5                      6
                     A                      A                      A
 Frequencies --    44.2777                48.3636                61.4422
 Red. masses --     6.6895                 8.1096                 7.5340
 Frc consts  --     0.0077                 0.0112                 0.0168
 IR Inten    --     0.3911                 0.3335                 0.0232

                     7                      8                      9
                     A                      A                      A
 Frequencies --    84.3430               105.5044               140.3564
 Red. masses --     6.6702                 6.5735                 6.9729
 Frc consts  --     0.0280                 0.0431                 0.0809
 IR Inten    --     0.1607                 0.1456                 0.8703

                    10                     11                     12
                     A                      A                      A
 Frequencies --   159.8655               165.0071               183.2255
 Red. masses --     7.9152                 5.0730                 5.5363
 Frc consts  --     0.1192                 0.0814                 0.1095
 IR Inten    --     0.6024                 0.0085                 1.4234

                    13                     14                     15
                     A                      A                      A
 Frequencies --   195.1327               205.4641               221.7844
 Red. masses --     8.3049                 5.7711                 8.0837
 Frc consts  --     0.1863                 0.1435                 0.2343
 IR Inten    --     0.1870                 3.2289                 0.3273

                    16                     17                     18
                     A                      A                      A
 Frequencies --   266.9340               288.5960               299.2378
 Red. masses --     4.8844                 4.8986                 3.9620
 Frc consts  --     0.2051                 0.2404                 0.2090
 IR Inten    --     1.0835                 1.2611                 1.9903

                    19                     20                     21
                     A                      A                      A
 Frequencies --   318.1850               370.9818               401.3857
 Red. masses --     6.8603                 3.0410                 5.1370
 Frc consts  --     0.4092                 0.2466                 0.4876
 IR Inten    --     1.7086                13.8466                17.4396

                    22                     23                     24
                     A                      A                      A
 Frequencies --   405.4152               415.7695               423.0577
 Red. masses --     4.2679                 3.1510                 3.9786
 Frc consts  --     0.4133                 0.3209                 0.4195
 IR Inten    --     2.6489                 3.2590                 1.9859

                    25                     26                     27
                     A                      A                      A
 Frequencies --   449.6152               480.6824               505.0983
 Red. masses --     6.5293                 6.1339                12.1301
 Frc consts  --     0.7777                 0.8350                 1.8233
 IR Inten    --     0.8141                12.5280                22.5578

                    28                     29                     30
                     A                      A                      A
 Frequencies --   514.5983               523.4343               533.7323
 Red. masses --     9.1623                 2.7616                10.8312
 Frc consts  --     1.4295                 0.4458                 1.8179
 IR Inten    --     1.0677                 1.2405                 0.8512

                    31                     32                     33
                     A                      A                      A
 Frequencies --   546.8177               553.1240               601.1282
 Red. masses --     8.2014                 4.4485                 5.1616
 Frc consts  --     1.4448                 0.8019                 1.0989
 IR Inten    --     4.0891                 0.4634                11.4424

                    34                     35                     36
                     A                      A                      A
 Frequencies --   624.1685               628.3111               661.6759
 Red. masses --     5.9461                 9.1058                 9.3830
 Frc consts  --     1.3648                 2.1180                 2.4204
 IR Inten    --     0.7043                18.8307                 7.2054

                    37                     38                     39
                     A                      A                      A
 Frequencies --   678.6811               690.5239               692.0570
 Red. masses --     2.8241                 2.8843                 1.4078
 Frc consts  --     0.7664                 0.8103                 0.3973
 IR Inten    --    20.1382                 9.1779                45.3055

                    40                     41                     42
                     A                      A                      A
 Frequencies --   702.1358               713.1899               740.8443
 Red. masses --     6.3005                 1.3802                 9.6612
 Frc consts  --     1.8301                 0.4136                 3.1242
 IR Inten    --    22.1395                 8.7276                 0.5117

                    43                     44                     45
                     A                      A                      A
 Frequencies --   761.3326               768.7718               793.4969
 Red. masses --     8.6830                 1.8137                 9.8232
 Frc consts  --     2.9653                 0.6315                 3.6441
 IR Inten    --     3.0941                46.7179                 1.6477

                    46                     47                     48
                     A                      A                      A
 Frequencies --   804.2377               820.5591               832.8491
 Red. masses --     6.7694                 5.9217                 7.5961
 Frc consts  --     2.5797                 2.3492                 3.1044
 IR Inten    --     8.4482                45.3854                27.6526

                    49                     50                     51
                     A                      A                      A
 Frequencies --   836.7083               842.4937               846.4151
 Red. masses --     7.7814                 5.0823                13.3805
 Frc consts  --     3.2097                 2.1254                 5.6479
 IR Inten    --    16.1944                20.7257                61.4807

                    52                     53                     54
                     A                      A                      A
 Frequencies --   870.5566               875.5456               885.9345
 Red. masses --     1.4154                 9.1179                 1.5447
 Frc consts  --     0.6320                 4.1182                 0.7143
 IR Inten    --     9.4827                 9.5350                 5.8915

                    55                     56                     57
                     A                      A                      A
 Frequencies --   902.3654               918.4194               946.9849
 Red. masses --     4.4146                 1.9684                 1.7200
 Frc consts  --     2.1179                 0.9782                 0.9088
 IR Inten    --     3.4976                19.5448                 8.6714

                    58                     59                     60
                     A                      A                      A
 Frequencies --   947.4885               950.1306               954.1151
 Red. masses --     2.0146                 7.8564                 1.5132
 Frc consts  --     1.0656                 4.1787                 0.8116
 IR Inten    --     9.0496                 9.2574                 5.4241

                    61                     62                     63
                     A                      A                      A
 Frequencies --   956.4037               963.2945               967.5450
 Red. masses --     1.3217                 1.5647                 1.8880
 Frc consts  --     0.7123                 0.8555                 1.0413
 IR Inten    --     0.1932                 0.1564                27.0268

                    64                     65                     66
                     A                      A                      A
 Frequencies --   987.8407              1035.7074              1057.4515
 Red. masses --     3.5962                 1.8341                 4.1192
 Frc consts  --     2.0676                 1.1592                 2.7139
 IR Inten    --     2.0811                28.9428                 5.1309

                    67                     68                     69
                     A                      A                      A
 Frequencies --  1093.1665              1125.3098              1129.1510
 Red. masses --     3.4287                 1.2263                 1.3789
 Frc consts  --     2.4141                 0.9149                 1.0358
 IR Inten    --    31.4029                 1.2923                 3.6946

                    70                     71                     72
                     A                      A                      A
 Frequencies --  1133.1927              1153.6876              1168.8288
 Red. masses --     1.1237                 1.1321                 2.1758
 Frc consts  --     0.8502                 0.8878                 1.7513
 IR Inten    --     0.0250                 5.0125                17.4168

                    73                     74                     75
                     A                      A                      A
 Frequencies --  1199.4125              1203.6322              1232.6020
 Red. masses --     2.2097                 2.9814                 2.6685
 Frc consts  --     1.8730                 2.5448                 2.3887
 IR Inten    --    72.6584                 9.6007                 1.0568

                    76                     77                     78
                     A                      A                      A
 Frequencies --  1263.1596              1281.4658              1292.7076
 Red. masses --     1.9479                 2.2061                 1.7344
 Frc consts  --     1.8312                 2.1344                 1.7076
 IR Inten    --    17.2699                29.9928                 6.0383

                    79                     80                     81
                     A                      A                      A
 Frequencies --  1297.6238              1338.3449              1350.0854
 Red. masses --     3.7833                 2.6423                 3.0327
 Frc consts  --     3.7533                 2.7885                 3.2568
 IR Inten    --     0.4788                17.7755                11.6542

                    82                     83                     84
                     A                      A                      A
 Frequencies --  1352.3888              1356.3781              1369.1521
 Red. masses --     4.3241                 2.6452                 3.2971
 Frc consts  --     4.6596                 2.8673                 3.6415
 IR Inten    --    14.9574                33.5538                18.6510

                    85                     86                     87
                     A                      A                      A
 Frequencies --  1377.4419              1396.8123              1398.8790
 Red. masses --     4.6926                 5.8439                 2.3901
 Frc consts  --     5.2457                 6.7179                 2.7557
 IR Inten    --    30.5268                 2.8954                78.6256

                    88                     89                     90
                     A                      A                      A
 Frequencies --  1417.8157              1452.8727              1454.3108
 Red. masses --     1.1410                 9.2707                 1.1068
 Frc consts  --     1.3514                11.5297                 1.3793
 IR Inten    --     7.4308               421.7252                25.4873

                    91                     92                     93
                     A                      A                      A
 Frequencies --  1495.5174              1523.2862              1539.9106
 Red. masses --     6.8739                 6.0425                 6.1398
 Frc consts  --     9.0581                 8.2609                 8.5783
 IR Inten    --   159.9463                 6.5495                44.3678

                    94                     95                     96
                     A                      A                      A
 Frequencies --  1548.9518              1551.7440              1574.4874
 Red. masses --     6.4067                 6.7755                 7.7920
 Frc consts  --     9.0565                 9.6123                11.3809
 IR Inten    --    84.6302                 0.3620                26.4438

                    97                     98                     99
                     A                      A                      A
 Frequencies --  1606.0349              1631.0892              1637.9925
 Red. masses --     6.7533                 5.3303                 8.1267
 Frc consts  --    10.2630                 8.3552                12.8467
 IR Inten    --    12.9739                 2.1746                32.9765

                   100                    101                    102
                     A                      A                      A
 Frequencies --  3030.7656              3033.8070              3060.9911
 Red. masses --     1.0609                 1.0691                 1.0995
 Frc consts  --     5.7413                 5.7976                 6.0699
 IR Inten    --     2.5631                11.1037                 2.5881

                   103                    104                    105
                     A                      A                      A
 Frequencies --  3084.6062              3183.5313              3211.5705
 Red. masses --     1.0915                 1.0904                 1.0872
 Frc consts  --     6.1190                 6.5108                 6.6068
 IR Inten    --     4.1956                35.9653                 1.8353

                   106                    107                    108
                     A                      A                      A
 Frequencies --  3214.2056              3222.6627              3228.2802
 Red. masses --     1.0888                 1.0925                 1.0931
 Frc consts  --     6.6272                 6.6848                 6.7122
 IR Inten    --    26.7341                 2.9848                17.7153

                   109                    110                    111
                     A                      A                      A
 Frequencies --  3234.0228              3244.5910              3257.1570
 Red. masses --     1.1027                 1.1030                 1.0941
 Frc consts  --     6.7951                 6.8415                 6.8386
 IR Inten    --    31.8169                13.5481                 0.9088

 - Thermochemistry -
 -------------------
 Temperature   298.150 Kelvin.  Pressure   1.00000 Atm.
 Atom     1 has atomic number  6 and mass  12.00000

 Molecular mass:   404.02241 amu.
 Principal axes and moments of inertia in atomic units:
                           1         2         3
     Eigenvalues --  3578.20635********************
           X            1.00000  -0.00181   0.00222
           Y            0.00183   0.99997  -0.00708
           Z           -0.00220   0.00709   0.99997
 This molecule is an asymmetric top.
 Rotational symmetry number  1.
 Warning -- assumption of classical behavior for rotation
           may cause significant error
 Rotational temperatures (Kelvin)      0.02421     0.00303     0.00275
 Rotational constants (GHZ):           0.50437     0.06305     0.05736
 Zero-point vibrational energy     718914.0 (Joules/Mol)
                                  171.82457 (Kcal/Mol)
 Warning -- explicit consideration of  33 degrees of freedom as
           vibrations may cause significant error
 Vibrational temperatures:     22.85    30.81    45.05    63.71    69.58
          (Kelvin)             88.40   121.35   151.80   201.94   230.01
                              237.41   263.62   280.75   295.62   319.10
                              384.06   415.22   430.54   457.80   533.76
                              577.50   583.30   598.20   608.68   646.90
                              691.59   726.72   740.39   753.10   767.92
                              786.75   795.82   864.89   898.04   904.00
                              952.00   976.47   993.51   995.71  1010.22
                             1026.12  1065.91  1095.39  1106.09  1141.66
                             1157.12  1180.60  1198.28  1203.84  1212.16
                             1217.80  1252.54  1259.71  1274.66  1298.30
                             1321.40  1362.50  1363.22  1367.02  1372.76
                             1376.05  1385.96  1392.08  1421.28  1490.15
                             1521.43  1572.82  1619.07  1624.59  1630.41
                             1659.90  1681.68  1725.68  1731.76  1773.44
                             1817.40  1843.74  1859.92  1866.99  1925.58
                             1942.47  1945.78  1951.52  1969.90  1981.83
                             2009.70  2012.67  2039.92  2090.36  2092.43
                             2151.71  2191.67  2215.59  2228.59  2232.61
                             2265.33  2310.72  2346.77  2356.70  4360.59
                             4364.97  4404.08  4438.05  4580.39  4620.73
                             4624.52  4636.69  4644.77  4653.03  4668.24
                             4686.32

 Zero-point correction=                           0.273820 (Hartree/Particle)
 Thermal correction to Energy=                    0.295396
 Thermal correction to Enthalpy=                  0.296340
 Thermal correction to Gibbs Free Energy=         0.219862
 Sum of electronic and zero-point Energies=          -2182.622545
 Sum of electronic and thermal Energies=             -2182.600969
 Sum of electronic and thermal Enthalpies=           -2182.600025
 Sum of electronic and thermal Free Energies=        -2182.676503

                     E (Thermal)             CV                S
                      KCal/Mol        Cal/Mol-Kelvin    Cal/Mol-Kelvin
 Total                  185.364             84.254            160.962
 Electronic               0.000              0.000              0.000
 Translational            0.889              2.981             43.880
 Rotational               0.889              2.981             36.420
 Vibrational            183.586             78.292             80.662
 Vibration     1          0.593              1.986              7.092
 Vibration     2          0.593              1.985              6.498
 Vibration     3          0.594              1.983              5.745
 Vibration     4          0.595              1.980              5.058
 Vibration     5          0.595              1.978              4.883
 Vibration     6          0.597              1.973              4.410
 Vibration     7          0.601              1.960              3.787
 Vibration     8          0.605              1.945              3.350
 Vibration     9          0.615              1.913              2.799
 Vibration    10          0.622              1.892              2.551
 Vibration    11          0.623              1.885              2.492
 Vibration    12          0.631              1.863              2.295
 Vibration    13          0.636              1.847              2.179
 Vibration    14          0.640              1.832              2.084
 Vibration    15          0.648              1.808              1.944
 Vibration    16          0.672              1.734              1.616
 Vibration    17          0.685              1.695              1.482
 Vibration    18          0.692              1.675              1.421
 Vibration    19          0.705              1.639              1.319
 Vibration    20          0.743              1.532              1.076
 Vibration    21          0.767              1.467              0.958
 Vibration    22          0.770              1.458              0.943
 Vibration    23          0.779              1.436              0.906
 Vibration    24          0.785              1.420              0.882
 Vibration    25          0.809              1.362              0.797
 Vibration    26          0.837              1.293              0.708
 Vibration    27          0.860              1.239              0.646
 Vibration    28          0.870              1.218              0.623
 Vibration    29          0.878              1.198              0.602
 Vibration    30          0.889              1.175              0.579
 Vibration    31          0.902              1.147              0.551
 Vibration    32          0.909              1.133              0.538
 Vibration    33          0.959              1.029              0.448

 Optimization completed.
    -- Stationary point found.

 1\1\GINC-N246\Freq\RB3LYP\6-31++G(d,p)\C20H12N4S3\SHUO\30-Dec-2013\0\\
 #N Geom=AllCheck Guess=TCheck SCRF=Check Test GenChk RB3LYP/6-31++G(d,
 p) Freq\\Geom opt of No.85 candidate from the CEPDB database with SMIL
 E code of C1cccc1-c1cnc(s1)-c1ncc(-c2scc3ccCc23)c2nsnc12, HPC, 2013122
 7, Shuo Dai, Gaussian09\\0,1\C,0.4231257394,0.2979404494,-0.5928175974
 \C,0.8111574306,-0.8367671682,-1.5006478952\C,0.0978699609,-1.93745184
 05,-1.1629328808\C,-0.7834412051,-1.6224576209,-0.0463766809\C,-0.6203
 761347,-0.3145011595,0.3193903362\C,-1.2990540846,0.3960801423,1.37797

 Normal termination of Gaussian 09 at Mon Dec 30 01:28:55 2013.
