 Gaussian 09, Revision C.01,
 Gaussian 09:  EM64L-G09RevC.01 23-Sep-2011

 --------------------------------------------
 #B3LYP/6-31++G(d,p) opt scf=direct freq test
 --------------------------------------------

 Geom opt of No.48 candidate from the CEPDB database with SMILE code of
  [SiH2]1ccc2c1csc2-c1sc(-c2ccc(-c3ncncn3)c3nsnc23)c2[Se]ccc12, HPC, 20
 131227, Shuo Dai, Gaussian09
 ----------------------------------------------------------------------
 Charge =  0 Multiplicity = 1

 SCF Done:  E(RB3LYP) =  -4962.22528754     A.U. after   16 cycles
 SCF Done:  E(RB3LYP) =  -4962.66924515     A.U. after   16 cycles
 SCF Done:  E(RB3LYP) =  -4963.28733818     A.U. after   18 cycles
 SCF Done:  E(RB3LYP) =  -4963.77635834     A.U. after   18 cycles
 SCF Done:  E(RB3LYP) =  -4963.86881441     A.U. after   18 cycles
 SCF Done:  E(RB3LYP) =  -4963.97258383     A.U. after   17 cycles
 SCF Done:  E(RB3LYP) =  -4964.07128469     A.U. after   17 cycles
 SCF Done:  E(RB3LYP) =  -4964.08705960     A.U. after   17 cycles
 SCF Done:  E(RB3LYP) =  -4964.08019975     A.U. after   19 cycles
 SCF Done:  E(RB3LYP) =  -4964.08827171     A.U. after   17 cycles
 SCF Done:  E(RB3LYP) =  -4964.09552795     A.U. after   12 cycles
 SCF Done:  E(RB3LYP) =  -4964.09552985     A.U. after   12 cycles
 SCF Done:  E(RB3LYP) =  -4964.09553112     A.U. after   11 cycles
 SCF Done:  E(RB3LYP) =  -4964.09553212     A.U. after   11 cycles
 SCF Done:  E(RB3LYP) =  -4964.09553283     A.U. after   11 cycles
 SCF Done:  E(RB3LYP) =  -4964.09553346     A.U. after   11 cycles
 SCF Done:  E(RB3LYP) =  -4964.09553386     A.U. after   10 cycles
 SCF Done:  E(RB3LYP) =  -4964.09553416     A.U. after   10 cycles
 SCF Done:  E(RB3LYP) =  -4964.09553431     A.U. after   11 cycles
 Optimization completed.
    -- Stationary point found.
 Normal termination of Gaussian 09 at Sun Dec 29 17:49:57 2013.

 ----------------------------------------------------------------------
 #N Geom=AllCheck Guess=TCheck SCRF=Check Test GenChk RB3LYP/6-31++G(d,
 p) Freq
 ----------------------------------------------------------------------

 Geom opt of No.48 candidate from the CEPDB database with SMILE code of
  [SiH2]1ccc2c1csc2-c1sc(-c2ccc(-c3ncncn3)c3nsnc23)c2[Se]ccc12, HPC, 20
 131227, Shuo Dai, Gaussian09
 ----------------------------------------------------------------------
 Charge =  0 Multiplicity = 1

                         Standard orientation:
 ---------------------------------------------------------------------
 Center     Atomic      Atomic             Coordinates (Angstroms)
 Number     Number       Type             X           Y           Z
 ---------------------------------------------------------------------
      1         14           0       -6.576853   -2.873170   -0.559205
      2          1           0       -7.704552   -2.673662   -1.506471
      3          1           0       -6.981040   -3.901825    0.434595
      4          6           0       -4.920184   -3.194230   -1.388330
      5          6           0       -4.047830   -2.203719   -1.077766
      6          6           0       -4.545574   -1.142293   -0.191626
      7          6           0       -5.929581   -1.283244    0.208410
      8          6           0       -6.349186   -0.246415    0.988239
      9         16           0       -5.087566    0.919385    1.272392
     10          6           0       -3.936520    0.004393    0.294244
     11          6           0       -2.570955    0.469252    0.147353
     12         16           0       -1.245316   -0.659584    0.229249
     13          6           0       -0.020676    0.596302    0.031920
     14          6           0        1.398585    0.304410    0.006099
     15          6           0        2.366838    1.298805   -0.119941
     16          6           0        3.753018    1.035172   -0.131275
     17          6           0        4.301127   -0.232406   -0.006757
     18          6           0        5.765783   -0.394381    0.004195
     19          7           0        6.507644    0.679503   -0.351965
     20          6           0        7.824189    0.500263   -0.322552
     21          7           0        8.460329   -0.629412    0.017418
     22          6           0        7.632185   -1.623612    0.358387
     23          7           0        6.300737   -1.571227    0.375791
     24          6           0        3.360068   -1.314535    0.108090
     25          7           0        3.634949   -2.621492    0.195372
     26         16           0        2.204032   -3.414000    0.287078
     27          7           0        1.175274   -2.135353    0.213579
     28          6           0        1.925829   -1.037154    0.112514
     29          6           0       -0.667312    1.825464   -0.073347
     30         34           0       -0.090210    3.605052   -0.310354
     31          6           0       -1.927581    4.095973   -0.318355
     32          6           0       -2.762220    3.043029   -0.159493
     33          6           0       -2.096498    1.769756   -0.012041
     34          1           0       -4.631697   -4.010475   -2.043103
     35          1           0       -3.029320   -2.169486   -1.455681
     36          1           0       -7.324426   -0.076725    1.426776
     37          1           0        2.074050    2.336199   -0.207782
     38          1           0        4.435419    1.871281   -0.232127
     39          1           0        8.443834    1.349352   -0.603970
     40          1           0        8.088457   -2.566352    0.653329
     41          1           0       -2.198879    5.134543   -0.450984
     42          1           0       -3.840735    3.147844   -0.152327
 ---------------------------------------------------------------------

 SCF Done:  E(RB3LYP) =  -4964.09553431     A.U. after    2 cycles

 The electronic state is 1-A.
 Alpha  occ. eigenvalues -- -453.91229 -88.98663 -88.93427 -88.92970 -66.14569
 Alpha  occ. eigenvalues --  -57.51095 -52.18461 -52.18355 -52.18061 -14.38585
 Alpha  occ. eigenvalues --  -14.38085 -14.35955 -14.35723 -14.35467 -10.29369
 Alpha  occ. eigenvalues --  -10.28063 -10.27896 -10.26239 -10.26173 -10.25381
 Alpha  occ. eigenvalues --  -10.25252 -10.25039 -10.24779 -10.24503 -10.23981
 Alpha  occ. eigenvalues --  -10.23844 -10.22803 -10.22598 -10.22313 -10.22191
 Alpha  occ. eigenvalues --  -10.22178 -10.22042 -10.21865 -10.19975 -10.19454
 Alpha  occ. eigenvalues --   -8.03976  -7.99148  -7.98859  -7.75353  -6.00544
 Alpha  occ. eigenvalues --   -5.99952  -5.99721  -5.95602  -5.95300  -5.95198
 Alpha  occ. eigenvalues --   -5.94908  -5.94853  -5.94562  -5.79574  -5.79187
 Alpha  occ. eigenvalues --   -5.78482  -5.29314  -3.65215  -3.65146  -3.65139
 Alpha  occ. eigenvalues --   -2.15215  -2.15157  -2.14541  -2.14233  -2.14145
 Alpha  occ. eigenvalues --   -1.03550  -1.03184  -0.92479  -0.91958  -0.91184
 Alpha  occ. eigenvalues --   -0.90545  -0.89802  -0.87652  -0.84513  -0.81590
 Alpha  occ. eigenvalues --   -0.80971  -0.77847  -0.77437  -0.74017  -0.73683
 Alpha  occ. eigenvalues --   -0.72395  -0.71429  -0.69383  -0.68355  -0.65957
 Alpha  occ. eigenvalues --   -0.63362  -0.62957  -0.61477  -0.60768  -0.59024
 Alpha  occ. eigenvalues --   -0.57243  -0.56044  -0.55583  -0.54410  -0.52808
 Alpha  occ. eigenvalues --   -0.52246  -0.51304  -0.50714  -0.49571  -0.48539
 Alpha  occ. eigenvalues --   -0.47068  -0.46556  -0.45751  -0.45362  -0.43996
 Alpha  occ. eigenvalues --   -0.43681  -0.43413  -0.43010  -0.42087  -0.41617
 Alpha  occ. eigenvalues --   -0.40816  -0.40718  -0.39892  -0.39450  -0.39191
 Alpha  occ. eigenvalues --   -0.38146  -0.38031  -0.37445  -0.36596  -0.36279
 Alpha  occ. eigenvalues --   -0.35836  -0.35019  -0.34331  -0.33746  -0.33665
 Alpha  occ. eigenvalues --   -0.33453  -0.32726  -0.31893  -0.31763  -0.30949
 Alpha  occ. eigenvalues --   -0.30313  -0.28141  -0.27918  -0.26762  -0.26184
 Alpha  occ. eigenvalues --   -0.25882  -0.25358  -0.24331  -0.20490
 Alpha virt. eigenvalues --   -0.11756  -0.07449  -0.06445  -0.05686  -0.04550
 Alpha virt. eigenvalues --   -0.03349  -0.02457  -0.02421  -0.01150  -0.01106
 Alpha virt. eigenvalues --   -0.00850  -0.00677  -0.00465  -0.00199   0.00278

 Mulliken atomic charges:
              1
     1  Si   0.875484
     2  H   -0.096538
     3  H   -0.106814
     4  C   -0.561060
     5  C   -0.026408
     6  C   -0.478500
     7  C   -0.206446
     8  C   -0.059457
     9  S    0.022949
    10  C    0.124942
    11  C   -0.110997
    12  S   -0.152810
    13  C    0.416202
    14  C    1.085793
    15  C   -0.760873
    16  C   -0.960530
    17  C    0.456204
    18  C   -0.069624
    19  N   -0.136808
    20  C    0.162289
    21  N   -0.243925
    22  C    0.240493
    23  N   -0.135827
    24  C   -0.129648
    25  N   -0.361485
    26  S    1.007268
    27  N   -0.410410
    28  C   -0.372850
    29  C    0.176305
    30  Se   0.132953
    31  C   -0.095629
    32  C   -0.375983
    33  C    0.163256
    34  H    0.131509
    35  H    0.096406
    36  H    0.185804
    37  H   -0.323659
    38  H    0.261297
    39  H    0.155153
    40  H    0.161548
    41  H    0.213826
    42  H    0.106599
 Sum of Mulliken atomic charges =  -0.00000

 Dipole moment (field-independent basis, Debye):
    X=             -3.8174    Y=              1.6889    Z=             -0.3867  Tot=              4.1922
 Quadrupole moment (field-independent basis, Debye-Ang):
   XX=           -220.6732   YY=           -202.7502   ZZ=           -221.9734
   XY=              4.1340   XZ=             -1.9072   YZ=              1.5794

  Exact polarizability: 838.790  11.911 468.705  -3.510   5.999 214.596
 Approx polarizability:1231.524  15.687 883.510 -19.612  10.141 373.113

                     1                      2                      3
                     A                      A                      A
 Frequencies --    12.9007                18.1176                21.3611
 Red. masses --    10.8978                 6.2490                 8.2075
 Frc consts  --     0.0011                 0.0012                 0.0022
 IR Inten    --     0.0418                 0.1963                 0.0531

                     4                      5                      6
                     A                      A                      A
 Frequencies --    38.1688                38.9865                52.9108
 Red. masses --     8.6757                 9.3118                 6.8591
 Frc consts  --     0.0074                 0.0083                 0.0113
 IR Inten    --     0.1197                 0.0556                 0.1128

                     7                      8                      9
                     A                      A                      A
 Frequencies --    74.8657                83.7015               116.4138
 Red. masses --     7.5008                 7.9938                 6.5253
 Frc consts  --     0.0248                 0.0330                 0.0521
 IR Inten    --     0.1069                 0.1214                 0.0750

                    10                     11                     12
                     A                      A                      A
 Frequencies --   127.4435               131.8512               153.4473
 Red. masses --     7.4908                 8.9684                 9.4044
 Frc consts  --     0.0717                 0.0919                 0.1305
 IR Inten    --     0.2089                 0.4186                 0.2824

                    13                     14                     15
                     A                      A                      A
 Frequencies --   162.5344               165.9880               173.1898
 Red. masses --    10.5992                 9.5199                 5.9356
 Frc consts  --     0.1650                 0.1545                 0.1049
 IR Inten    --     0.6661                 0.0113                 0.8501

                    16                     17                     18
                     A                      A                      A
 Frequencies --   182.0750               213.1448               214.6688
 Red. masses --    12.0793                 7.2648                 7.1023
 Frc consts  --     0.2359                 0.1945                 0.1928
 IR Inten    --     0.4088                 1.4257                 3.5427

                    19                     20                     21
                     A                      A                      A
 Frequencies --   236.0691               276.8904               296.4831
 Red. masses --     5.9881                 7.2012                 8.3183
 Frc consts  --     0.1966                 0.3253                 0.4308
 IR Inten    --     0.9990                 1.3540                 0.8028

                    22                     23                     24
                     A                      A                      A
 Frequencies --   317.6449               340.7518               355.2091
 Red. masses --     7.2289                10.8645                 5.5201
 Frc consts  --     0.4297                 0.7432                 0.4104
 IR Inten    --     1.7267                 0.9101                 0.6591

                    25                     26                     27
                     A                      A                      A
 Frequencies --   356.6187               371.0008               392.4131
 Red. masses --     4.1986                 2.7239                 5.1153
 Frc consts  --     0.3146                 0.2209                 0.4641
 IR Inten    --     0.3898                 1.9193                 1.4017

                    28                     29                     30
                     A                      A                      A
 Frequencies --   403.6687               448.3067               462.2531
 Red. masses --     9.4745                 8.5309                 5.6483
 Frc consts  --     0.9096                 1.0102                 0.7111
 IR Inten    --     3.0137                31.6008                 3.9591

                    31                     32                     33
                     A                      A                      A
 Frequencies --   475.5925               480.8951               486.7139
 Red. masses --     6.4463                 7.5659                 8.9515
 Frc consts  --     0.8591                 1.0309                 1.2494
 IR Inten    --     3.6058                 2.0535                 6.8792

                    34                     35                     36
                     A                      A                      A
 Frequencies --   506.0095               519.0499               526.2786
 Red. masses --     7.0268                 5.5435                 7.2451
 Frc consts  --     1.0600                 0.8799                 1.1823
 IR Inten    --    14.8240                 1.1717                 2.9346

                    37                     38                     39
                     A                      A                      A
 Frequencies --   533.8972               559.6416               569.1783
 Red. masses --     5.0731                 8.1860                 4.1462
 Frc consts  --     0.8520                 1.5106                 0.7914
 IR Inten    --    12.4695                25.2681                12.3604

                    40                     41                     42
                     A                      A                      A
 Frequencies --   600.7488               618.3487               620.7851
 Red. masses --     1.8451                 3.2136                 2.8074
 Frc consts  --     0.3923                 0.7239                 0.6374
 IR Inten    --     2.1630                18.0488                21.6705

                    43                     44                     45
                     A                      A                      A
 Frequencies --   628.5049               639.8702               666.6337
 Red. masses --     3.6906                 6.5458                 3.1334
 Frc consts  --     0.8590                 1.5790                 0.8204
 IR Inten    --    11.9654                 4.2446                13.0072

                    46                     47                     48
                     A                      A                      A
 Frequencies --   674.6994               684.0327               701.9045
 Red. masses --     7.3316                 2.1416                 9.1979
 Frc consts  --     1.9664                 0.5904                 2.6699
 IR Inten    --    42.2595                10.8614                 0.6045

                    49                     50                     51
                     A                      A                      A
 Frequencies --   709.3688               721.5557               731.2985
 Red. masses --     9.1635                 1.5650                 1.7179
 Frc consts  --     2.7168                 0.4801                 0.5413
 IR Inten    --    11.5650                12.9710                 8.9491

                    52                     53                     54
                     A                      A                      A
 Frequencies --   760.2295               775.4747               777.0617
 Red. masses --     5.8854                 8.8626                 2.7145
 Frc consts  --     2.0041                 3.1401                 0.9657
 IR Inten    --     9.1945                29.7254                29.9140

                    55                     56                     57
                     A                      A                      A
 Frequencies --   783.4355               791.7187               797.2956
 Red. masses --     1.3863                 7.5376                 1.8971
 Frc consts  --     0.5013                 2.7837                 0.7105
 IR Inten    --     6.4209                 7.0590                43.1221

                    58                     59                     60
                     A                      A                      A
 Frequencies --   800.7034               812.5527               839.8756
 Red. masses --    10.5465                 6.0113                 2.8946
 Frc consts  --     3.9839                 2.3384                 1.2030
 IR Inten    --    42.1096                19.5853                36.4554

                    61                     62                     63
                     A                      A                      A
 Frequencies --   846.0235               847.6303               861.7938
 Red. masses --     5.7965                 6.1970                 6.0097
 Frc consts  --     2.4444                 2.6233                 2.6297
 IR Inten    --    13.9607                51.3549                47.1905

                    64                     65                     66
                     A                      A                      A
 Frequencies --   865.2067               870.8507               877.9868
 Red. masses --     5.2567                 4.3315                 2.1662
 Frc consts  --     2.3185                 1.9354                 0.9838
 IR Inten    --    26.2724                16.8401                 1.1891

                    67                     68                     69
                     A                      A                      A
 Frequencies --   912.5926               925.9706               973.4545
 Red. masses --     8.7504                 1.3016                 1.0603
 Frc consts  --     4.2937                 0.6575                 0.5920
 IR Inten    --     0.6291                 1.1064               302.4222

                    70                     71                     72
                     A                      A                      A
 Frequencies --   974.3110               980.5970               988.3697
 Red. masses --     1.5714                 7.3068                 1.4355
 Frc consts  --     0.8789                 4.1396                 0.8262
 IR Inten    --     3.2990                 6.7663                 1.5580

                    73                     74                     75
                     A                      A                      A
 Frequencies --   999.8153              1004.4815              1012.0031
 Red. masses --     3.5788                 1.4263                11.9660
 Frc consts  --     2.1078                 0.8479                 7.2204
 IR Inten    --     1.9470                 1.8981                77.5905

                    76                     77                     78
                     A                      A                      A
 Frequencies --  1034.0787              1035.5039              1103.9934
 Red. masses --     3.8703                 1.4736                 3.8013
 Frc consts  --     2.4384                 0.9310                 2.7297
 IR Inten    --    41.9474                 0.0701                18.9921

                    79                     80                     81
                     A                      A                      A
 Frequencies --  1111.5282              1117.0166              1167.1978
 Red. masses --     1.1843                 1.1719                 3.3260
 Frc consts  --     0.8621                 0.8615                 2.6697
 IR Inten    --     9.3999                10.6236                12.5640

                    82                     83                     84
                     A                      A                      A
 Frequencies --  1182.9706              1201.6410              1203.1650
 Red. masses --     2.7549                 2.8020                 2.3026
 Frc consts  --     2.2714                 2.3838                 1.9639
 IR Inten    --    18.1834                19.0564                16.7389

                    85                     86                     87
                     A                      A                      A
 Frequencies --  1249.9989              1252.9958              1286.2136
 Red. masses --     2.7366                 3.0286                 3.9036
 Frc consts  --     2.5193                 2.8015                 3.8049
 IR Inten    --    24.0303                38.9589               108.1218

                    88                     89                     90
                     A                      A                      A
 Frequencies --  1307.8998              1329.9363              1332.8024
 Red. masses --     1.8189                 3.3298                 2.6117
 Frc consts  --     1.8332                 3.4700                 2.7334
 IR Inten    --    12.4485               181.3529                 8.2361

                    91                     92                     93
                     A                      A                      A
 Frequencies --  1340.2808              1349.2057              1361.0219
 Red. masses --     2.3390                 3.2674                 3.3167
 Frc consts  --     2.4755                 3.5044                 3.6198
 IR Inten    --    61.7485                17.1611                 2.1136

                    94                     95                     96
                     A                      A                      A
 Frequencies --  1376.2005              1395.4854              1411.2613
 Red. masses --     4.4458                 8.5712                 2.8765
 Frc consts  --     4.9609                 9.8343                 3.3755
 IR Inten    --   163.6590                95.4707               145.9525

                    97                     98                     99
                     A                      A                      A
 Frequencies --  1428.0327              1456.5137              1474.7451
 Red. masses --     1.7910                 3.7811                 6.1126
 Frc consts  --     2.1519                 4.7260                 7.8326
 IR Inten    --    71.7118              1060.3551                 4.0834

                   100                    101                    102
                     A                      A                      A
 Frequencies --  1494.8872              1531.2566              1539.9126
 Red. masses --     8.9785                 5.8354                 7.7490
 Frc consts  --    11.8214                 8.0616                10.8265
 IR Inten    --    66.8547                94.4090                21.7561

                   103                    104                    105
                     A                      A                      A
 Frequencies --  1557.5973              1559.9189              1565.1366
 Red. masses --     7.1284                 7.4529                 5.3571
 Frc consts  --    10.1896                10.6851                 7.7319
 IR Inten    --   282.4412               108.5377               842.0377

                   106                    107                    108
                     A                      A                      A
 Frequencies --  1583.7480              1591.0731              1613.4703
 Red. masses --     7.2712                 7.3148                 6.0522
 Frc consts  --    10.7456                10.9102                 9.2829
 IR Inten    --    42.9687                10.7838               335.7848

                   109                    110                    111
                     A                      A                      A
 Frequencies --  1614.7082              2227.9888              2230.9292
 Red. masses --     5.5399                 1.0518                 1.0301
 Frc consts  --     8.5102                 3.0760                 3.0207
 IR Inten    --   129.7680               120.9513               297.1408

                   112                    113                    114
                     A                      A                      A
 Frequencies --  3180.4826              3184.5638              3184.6150
 Red. masses --     1.0904                 1.0933                 1.0869
 Frc consts  --     6.4984                 6.5328                 6.4947
 IR Inten    --    28.8537                44.3137                 1.7661

                   115                    116                    117
                     A                      A                      A
 Frequencies --  3209.2357              3222.3847              3224.0704
 Red. masses --     1.0962                 1.0890                 1.0891
 Frc consts  --     6.6517                 6.6623                 6.6701
 IR Inten    --     5.9739                 3.0803                 1.5711

                   118                    119                    120
                     A                      A                      A
 Frequencies --  3241.6936              3245.4109              3260.0994
 Red. masses --     1.0900                 1.0941                 1.0984
 Frc consts  --     6.7489                 6.7899                 6.8779
 IR Inten    --    11.6012                 0.6943                 1.8256

 - Thermochemistry -
 -------------------
 Temperature   298.150 Kelvin.  Pressure   1.00000 Atm.
 Atom     1 has atomic number 14 and mass  27.97693

 Molecular mass:   536.91111 amu.
 Principal axes and moments of inertia in atomic units:
                           1         2         3
     Eigenvalues --  ******************************
           X            0.99996   0.00852   0.00130
           Y           -0.00853   0.99993   0.00813
           Z           -0.00123  -0.00814   0.99997
 This molecule is an asymmetric top.
 Rotational symmetry number  1.
 Warning -- assumption of classical behavior for rotation
           may cause significant error
 Rotational temperatures (Kelvin)      0.00852     0.00250     0.00198
 Rotational constants (GHZ):           0.17748     0.05202     0.04118
 Zero-point vibrational energy     715046.2 (Joules/Mol)
                                  170.90015 (Kcal/Mol)
 Warning -- explicit consideration of  42 degrees of freedom as
           vibrations may cause significant error
 Vibrational temperatures:     18.56    26.07    30.73    54.92    56.09
          (Kelvin)             76.13   107.71   120.43   167.49   183.36
                              189.70   220.78   233.85   238.82   249.18
                              261.96   306.67   308.86   339.65   398.38
                              426.57   457.02   490.27   511.07   513.09
                              533.79   564.59   580.79   645.01   665.08
                              684.27   691.90   700.27   728.03   746.80
                              757.20   768.16   805.20   818.92   864.34
                              889.66   893.17   904.28   920.63   959.14
                              970.74   984.17  1009.88  1020.62  1038.16
                             1052.17  1093.80  1115.73  1118.02  1127.19
                             1139.11  1147.13  1152.03  1169.08  1208.39
                             1217.24  1219.55  1239.93  1244.84  1252.96
                             1263.23  1313.02  1332.26  1400.58  1401.81
                             1410.86  1422.04  1438.51  1445.22  1456.04
                             1487.81  1489.86  1588.40  1599.24  1607.14
                             1679.34  1702.03  1728.89  1731.08  1798.47
                             1802.78  1850.57  1881.77  1913.48  1917.60
                             1928.36  1941.20  1958.20  1980.04  2007.79
                             2030.49  2054.62  2095.60  2121.83  2150.81
                             2203.13  2215.59  2241.03  2244.37  2251.88
                             2278.66  2289.20  2321.42  2323.20  3205.57
                             3209.81  4576.00  4581.87  4581.94  4617.37
                             4636.29  4638.71  4664.07  4669.42  4690.55

 Zero-point correction=                           0.272347 (Hartree/Particle)
 Thermal correction to Energy=                    0.297843
 Thermal correction to Enthalpy=                  0.298787
 Thermal correction to Gibbs Free Energy=         0.212806
 Sum of electronic and zero-point Energies=          -4963.823188
 Sum of electronic and thermal Energies=             -4963.797691
 Sum of electronic and thermal Enthalpies=           -4963.796747
 Sum of electronic and thermal Free Energies=        -4963.882728

                     E (Thermal)             CV                S
                      KCal/Mol        Cal/Mol-Kelvin    Cal/Mol-Kelvin
 Total                  186.899             98.796            180.962
 Electronic               0.000              0.000              0.000
 Translational            0.889              2.981             44.728
 Rotational               0.889              2.981             37.978
 Vibrational            185.122             92.834             98.257
 Vibration     1          0.593              1.987              7.505
 Vibration     2          0.593              1.986              6.831
 Vibration     3          0.593              1.985              6.503
 Vibration     4          0.594              1.982              5.352
 Vibration     5          0.594              1.981              5.310
 Vibration     6          0.596              1.976              4.706
 Vibration     7          0.599              1.966              4.021
 Vibration     8          0.601              1.960              3.802
 Vibration     9          0.608              1.936              3.159
 Vibration    10          0.611              1.926              2.984
 Vibration    11          0.612              1.922              2.919
 Vibration    12          0.619              1.899              2.629
 Vibration    13          0.623              1.888              2.520
 Vibration    14          0.624              1.884              2.480
 Vibration    15          0.627              1.875              2.401
 Vibration    16          0.630              1.864              2.307
 Vibration    17          0.644              1.821              2.017
 Vibration    18          0.645              1.819              2.004
 Vibration    19          0.655              1.786              1.832
 Vibration    20          0.678              1.716              1.553
 Vibration    21          0.690              1.680              1.437
 Vibration    22          0.704              1.640              1.322
 Vibration    23          0.720              1.594              1.209
 Vibration    24          0.731              1.565              1.143
 Vibration    25          0.732              1.562              1.137
 Vibration    26          0.743              1.532              1.076
 Vibration    27          0.760              1.486              0.991
 Vibration    28          0.769              1.462              0.949
 Vibration    29          0.807              1.365              0.801
 Vibration    30          0.820              1.334              0.760
 Vibration    31          0.832              1.304              0.722
 Vibration    32          0.837              1.292              0.708
 Vibration    33          0.843              1.280              0.692
 Vibration    34          0.861              1.237              0.643
 Vibration    35          0.874              1.208              0.612
 Vibration    36          0.881              1.192              0.596
 Vibration    37          0.889              1.175              0.579
 Vibration    38          0.915              1.119              0.525
 Vibration    39          0.925              1.098              0.506
 Vibration    40          0.959              1.030              0.448
 Vibration    41          0.978              0.993              0.419
 Vibration    42          0.981              0.988              0.415

 Normal termination of Gaussian 09 at Sun Dec 29 19:59:30 2013.
