 Gaussian 09, Revision C.01,
 Gaussian 09:  EM64L-G09RevC.01 23-Sep-2011

 --------------------------------------------
 #B3LYP/6-31++G(d,p) opt scf=direct freq test
 --------------------------------------------

 Geom opt of No.99 candidate from the CEPDB database with SMILE code of
  [SiH2]1cc2cccc(-c3ccc(-c4ncc(-c5[SiH2]ccc5)c5nsnc45)c4nsnc34)c2c1, HP
 C, 20131227, Shuo Dai, Gaussian09
 ----------------------------------------------------------------------
 Charge =  0 Multiplicity = 1

 SCF Done:  E(RB3LYP) =  -2536.81957692     A.U. after   24 cycles
 SCF Done:  E(RB3LYP) =  -2536.89028730     A.U. after   18 cycles
 SCF Done:  E(RB3LYP) =  -2536.93731586     A.U. after   16 cycles
 SCF Done:  E(RB3LYP) =  -2536.97178922     A.U. after   17 cycles
 SCF Done:  E(RB3LYP) =  -2536.98428407     A.U. after   17 cycles
 SCF Done:  E(RB3LYP) =  -2536.99901232     A.U. after   17 cycles
 SCF Done:  E(RB3LYP) =  -2537.01949373     A.U. after   19 cycles
 SCF Done:  E(RB3LYP) =  -2537.02914477     A.U. after   40 cycles
 SCF Done:  E(RB3LYP) =  -2537.03388271     A.U. after   55 cycles
 SCF Done:  E(RB3LYP) =  -2537.03735306     A.U. after   31 cycles
 SCF Done:  E(RB3LYP) =  -2537.04128791     A.U. after   11 cycles
 SCF Done:  E(RB3LYP) =  -2537.03166969     A.U. after   19 cycles
 SCF Done:  E(RB3LYP) =  -2537.04145263     A.U. after   23 cycles
 SCF Done:  E(RB3LYP) =  -2537.04148164     A.U. after   15 cycles
 SCF Done:  E(RB3LYP) =  -2537.04149632     A.U. after   15 cycles
 SCF Done:  E(RB3LYP) =  -2537.04150406     A.U. after   13 cycles
 SCF Done:  E(RB3LYP) =  -2537.04150772     A.U. after   13 cycles
 SCF Done:  E(RB3LYP) =  -2537.04151047     A.U. after   13 cycles
 SCF Done:  E(RB3LYP) =  -2537.04151039     A.U. after   11 cycles
 Optimization completed.
    -- Stationary point found.
 Normal termination of Gaussian 09 at Mon Dec 30 20:24:26 2013.

 ----------------------------------------------------------------------
 #N Geom=AllCheck Guess=TCheck SCRF=Check Test GenChk RB3LYP/6-31++G(d,
 p) Freq
 ----------------------------------------------------------------------

 Geom opt of No.99 candidate from the CEPDB database with SMILE code of
  [SiH2]1cc2cccc(-c3ccc(-c4ncc(-c5[SiH2]ccc5)c5nsnc45)c4nsnc34)c2c1, HP
 C, 20131227, Shuo Dai, Gaussian09
 ----------------------------------------------------------------------
 Charge =  0 Multiplicity = 1

                         Standard orientation:
 ---------------------------------------------------------------------
 Center     Atomic      Atomic             Coordinates (Angstroms)
 Number     Number       Type             X           Y           Z
 ---------------------------------------------------------------------
      1         14           0       -6.235369   -2.318757   -1.537971
      2          1           0       -6.465507   -2.430199   -3.003090
      3          1           0       -6.251339   -3.687531   -0.953303
      4          6           0       -7.434535   -1.144604   -0.642880
      5          6           0       -6.528689   -0.414837    0.341312
      6          6           0       -7.025964    0.306312    1.433593
      7          6           0       -6.151201    0.938780    2.316502
      8          6           0       -4.774019    0.858585    2.105768
      9          6           0       -4.251780    0.151877    1.010567
     10          6           0       -2.772438    0.085255    0.852028
     11          6           0       -1.968084   -0.476666    1.823105
     12          6           0       -0.546466   -0.521849    1.726838
     13          6           0        0.145704    0.018609    0.664673
     14          6           0        1.625142   -0.044562    0.613512
     15          7           0        2.208187   -1.196834    0.872324
     16          6           0        3.573159   -1.318886    0.841788
     17          6           0        4.475171   -0.313457    0.554088
     18          6           0        5.967171   -0.483222    0.471557
     19         14           0        6.502197   -1.004103   -1.313444
     20          1           0        5.397101   -0.916771   -2.302499
     21          1           0        7.647743   -0.204669   -1.828591
     22          6           0        6.981089   -2.731754   -0.789821
     23          6           0        6.946907   -2.822580    0.551832
     24          6           0        6.555759   -1.611682    1.374003
     25          6           0        3.876136    0.962301    0.302276
     26          7           0        4.526775    2.109145    0.055536
     27         16           0        3.371466    3.271579   -0.080913
     28          7           0        2.024230    2.371063    0.160004
     29          6           0        2.439553    1.112093    0.343181
     30          6           0       -0.640884    0.600756   -0.383652
     31          7           0       -0.171194    1.120371   -1.524855
     32         16           0       -1.474227    1.636250   -2.376729
     33          7           0       -2.679337    1.209209   -1.346978
     34          6           0       -2.092654    0.633995   -0.287580
     35          6           0       -5.135328   -0.499145    0.122446
     36          6           0       -4.676784   -1.342974   -1.059926
     37          1           0       -8.267945   -1.641759   -0.135876
     38          1           0       -7.877163   -0.436545   -1.357376
     39          1           0       -8.099393    0.363779    1.595239
     40          1           0       -6.537875    1.493787    3.166424
     41          1           0       -4.090948    1.359664    2.785697
     42          1           0       -2.437767   -0.912786    2.699913
     43          1           0        0.016843   -0.993852    2.525379
     44          1           0        3.928998   -2.322591    1.054942
     45          1           0        6.425581    0.479652    0.714166
     46          1           0        7.283578   -3.574692   -1.405029
     47          1           0        7.222910   -3.732850    1.086374
     48          1           0        7.448314   -1.236032    1.894064
     49          1           0        5.853748   -1.891628    2.169573
     50          1           0       -3.815920   -1.968772   -0.801847
     51          1           0       -4.354787   -0.696163   -1.885565
 ---------------------------------------------------------------------

 SCF Done:  E(RB3LYP) =  -2537.04151039     A.U. after    4 cycles

 The electronic state is 1-A.
 Alpha  occ. eigenvalues --  -88.99159 -88.98162 -66.13772 -66.12695 -14.38961
 Alpha  occ. eigenvalues --  -14.38646 -14.37759 -14.37713 -14.35359 -10.25905
 Alpha  occ. eigenvalues --  -10.25846 -10.25744 -10.25273 -10.25121 -10.23432
 Alpha  occ. eigenvalues --  -10.22937 -10.22445 -10.22434 -10.21582 -10.21505
 Alpha  occ. eigenvalues --  -10.21356 -10.21050 -10.20754 -10.20575 -10.20385
 Alpha  occ. eigenvalues --  -10.20377 -10.19554 -10.19477 -10.19343 -10.18704
 Alpha  occ. eigenvalues --  -10.18142 -10.17672  -8.04453  -8.03446  -6.01005
 Alpha  occ. eigenvalues --   -6.00425  -6.00222  -6.00006  -5.99425  -5.99205
 Alpha  occ. eigenvalues --   -5.28514  -5.27507  -3.64424  -3.64346  -3.64319
 Alpha  occ. eigenvalues --   -3.63371  -3.63361  -3.63324  -1.03617  -1.02537
 Alpha  occ. eigenvalues --   -0.95927  -0.90971  -0.89945  -0.87872  -0.86032
 Alpha  occ. eigenvalues --   -0.84060  -0.81040  -0.80305  -0.78524  -0.77703
 Alpha  occ. eigenvalues --   -0.76861  -0.74824  -0.72113  -0.69501  -0.68309
 Alpha  occ. eigenvalues --   -0.67692  -0.66228  -0.65456  -0.63937  -0.62640
 Alpha  occ. eigenvalues --   -0.61949  -0.59739  -0.57547  -0.56654  -0.54753
 Alpha  occ. eigenvalues --   -0.53694  -0.52584  -0.52075  -0.51510  -0.51438
 Alpha  occ. eigenvalues --   -0.50882  -0.49491  -0.48647  -0.48286  -0.46829
 Alpha  occ. eigenvalues --   -0.46541  -0.46379  -0.46075  -0.45470  -0.43690
 Alpha  occ. eigenvalues --   -0.43352  -0.42154  -0.41167  -0.40893  -0.40733
 Alpha  occ. eigenvalues --   -0.40396  -0.39852  -0.39834  -0.39438  -0.38793
 Alpha  occ. eigenvalues --   -0.38685  -0.37295  -0.36688  -0.36093  -0.35610
 Alpha  occ. eigenvalues --   -0.35427  -0.35120  -0.34747  -0.34063  -0.33691
 Alpha  occ. eigenvalues --   -0.33045  -0.32741  -0.32530  -0.32182  -0.31789
 Alpha  occ. eigenvalues --   -0.31554  -0.30517  -0.29860  -0.29031  -0.27637
 Alpha  occ. eigenvalues --   -0.27205  -0.27013  -0.26340  -0.24985  -0.24177
 Alpha  occ. eigenvalues --   -0.22913
 Alpha virt. eigenvalues --   -0.10795  -0.09515  -0.03094  -0.02218  -0.01965
 Alpha virt. eigenvalues --   -0.01527  -0.01340  -0.01306  -0.01136  -0.00696
 Alpha virt. eigenvalues --   -0.00464  -0.00322   0.00135   0.00333   0.00620

 Mulliken atomic charges:
              1
     1  Si   0.876556
     2  H   -0.079911
     3  H   -0.077278
     4  C   -0.818154
     5  C    0.166141
     6  C   -0.342027
     7  C   -0.117203
     8  C   -0.048591
     9  C   -0.087768
    10  C   -0.767739
    11  C   -0.425841
    12  C   -0.266810
    13  C   -0.397911
    14  C   -0.756775
    15  N   -0.021746
    16  C   -0.077163
    17  C   -0.516706
    18  C   -0.031447
    19  Si   0.942696
    20  H   -0.079741
    21  H   -0.080959
    22  C   -0.715226
    23  C    0.136346
    24  C   -0.586459
    25  C    0.449616
    26  N   -0.366759
    27  S    0.972244
    28  N   -0.296908
    29  C   -0.013914
    30  C    0.312674
    31  N   -0.241601
    32  S    1.079299
    33  N   -0.340775
    34  C    0.212307
    35  C    0.927893
    36  C   -1.019792
    37  H    0.197585
    38  H    0.197285
    39  H    0.087045
    40  H    0.112448
    41  H    0.147225
    42  H    0.148830
    43  H    0.153942
    44  H    0.159130
    45  H    0.267437
    46  H    0.126910
    47  H    0.159206
    48  H    0.179652
    49  H    0.196546
    50  H    0.190514
    51  H    0.175678
 Sum of Mulliken atomic charges =  -0.00000

 Dipole moment (field-independent basis, Debye):
    X=              1.2856    Y=             -0.5505    Z=              1.5408  Tot=              2.0809
 Quadrupole moment (field-independent basis, Debye-Ang):
   XX=           -195.5521   YY=           -213.7406   ZZ=           -208.1094
   XY=             -5.9365   XZ=              3.6981   YZ=             -1.0807

  Exact polarizability: 575.694  -7.043 339.226 -12.683 -13.316 337.288
 Approx polarizability: 783.629  -3.946 591.815 -21.451 -71.270 609.694

                     1                      2                      3
                     A                      A                      A
 Frequencies --    14.9090                17.7574                30.0734
 Red. masses --     5.8346                 7.6539                 6.9961
 Frc consts  --     0.0008                 0.0014                 0.0037
 IR Inten    --     0.1113                 0.0655                 0.1756

                     4                      5                      6
                     A                      A                      A
 Frequencies --    33.1310                41.7335                49.4132
 Red. masses --     5.0317                 6.3608                 4.6024
 Frc consts  --     0.0033                 0.0065                 0.0066
 IR Inten    --     0.0614                 0.0552                 0.2449

                     7                      8                      9
                     A                      A                      A
 Frequencies --    61.0629                64.9495                67.1166
 Red. masses --     6.0836                 3.0215                 4.6932
 Frc consts  --     0.0134                 0.0075                 0.0125
 IR Inten    --     0.1384                 0.2808                 0.1657

                    10                     11                     12
                     A                      A                      A
 Frequencies --    90.7003               135.9403               142.1213
 Red. masses --     6.4943                 3.7548                 4.4235
 Frc consts  --     0.0315                 0.0409                 0.0526
 IR Inten    --     0.4102                 0.1128                 0.1158

                    13                     14                     15
                     A                      A                      A
 Frequencies --   153.3648               163.2869               172.0745
 Red. masses --     5.4686                 6.3534                 7.6923
 Frc consts  --     0.0758                 0.0998                 0.1342
 IR Inten    --     0.6707                 0.4500                 1.3154

                    16                     17                     18
                     A                      A                      A
 Frequencies --   201.2528               202.9741               221.9713
 Red. masses --     9.2750                 9.0518                 3.5827
 Frc consts  --     0.2213                 0.2197                 0.1040
 IR Inten    --     0.5249                 0.2823                 1.6957

                    19                     20                     21
                     A                      A                      A
 Frequencies --   227.4828               232.2772               271.3205
 Red. masses --     5.7492                 8.7345                 3.7213
 Frc consts  --     0.1753                 0.2777                 0.1614
 IR Inten    --     1.7431                 1.0582                 0.5082

                    22                     23                     24
                     A                      A                      A
 Frequencies --   276.6041               326.6582               334.3027
 Red. masses --     3.8994                 2.3630                 4.5265
 Frc consts  --     0.1758                 0.1486                 0.2980
 IR Inten    --     5.1516                 0.2539                 0.8393

                    25                     26                     27
                     A                      A                      A
 Frequencies --   354.9518               376.7995               396.8885
 Red. masses --     4.2008                 3.9333                 5.2735
 Frc consts  --     0.3118                 0.3290                 0.4894
 IR Inten    --     6.0115                 7.2094                 1.9247

                    28                     29                     30
                     A                      A                      A
 Frequencies --   430.3551               470.4385               471.7707
 Red. masses --     5.0027                 5.6401                 3.8986
 Frc consts  --     0.5459                 0.7354                 0.5112
 IR Inten    --     0.8814                 6.4097                 5.4978

                    31                     32                     33
                     A                      A                      A
 Frequencies --   478.0829               493.9935               498.0774
 Red. masses --     5.3314                 2.2830                 2.3173
 Frc consts  --     0.7180                 0.3282                 0.3387
 IR Inten    --     5.2245                 4.1538                 2.5311

                    34                     35                     36
                     A                      A                      A
 Frequencies --   504.8980               512.0184               526.4735
 Red. masses --     5.3274                 5.0294                 9.1722
 Frc consts  --     0.8002                 0.7769                 1.4979
 IR Inten    --     2.3749                11.2987                 1.9756

                    37                     38                     39
                     A                      A                      A
 Frequencies --   536.7464               552.7452               556.1191
 Red. masses --     8.1739                 2.4628                 3.5655
 Frc consts  --     1.3874                 0.4433                 0.6497
 IR Inten    --    24.2358                 4.3555                 2.4097

                    40                     41                     42
                     A                      A                      A
 Frequencies --   568.3017               588.3815               590.9005
 Red. masses --     2.5643                 4.2531                 2.8141
 Frc consts  --     0.4880                 0.8675                 0.5789
 IR Inten    --     6.8456                 5.7464                14.1388

                    43                     44                     45
                     A                      A                      A
 Frequencies --   596.2948               613.8410               624.0609
 Red. masses --     3.9950                 1.1323                 5.0565
 Frc consts  --     0.8369                 0.2514                 1.1603
 IR Inten    --     3.5260                 5.0739                 8.8523

                    46                     47                     48
                     A                      A                      A
 Frequencies --   631.7362               644.3473               654.5734
 Red. masses --     4.9420                 5.0395                 4.7623
 Frc consts  --     1.1620                 1.2328                 1.2022
 IR Inten    --     8.6069                 9.2397                 5.0062

                    49                     50                     51
                     A                      A                      A
 Frequencies --   674.5722               692.2035               700.3935
 Red. masses --     4.3402                 4.4269                 5.1120
 Frc consts  --     1.1636                 1.2497                 1.4775
 IR Inten    --    16.2896                21.4218                 4.8404

                    52                     53                     54
                     A                      A                      A
 Frequencies --   705.8206               723.0401               723.8260
 Red. masses --     1.8930                 2.1523                 2.0234
 Frc consts  --     0.5556                 0.6629                 0.6246
 IR Inten    --     7.3729                 9.0078                22.9433

                    55                     56                     57
                     A                      A                      A
 Frequencies --   730.3170               732.5754               750.0837
 Red. masses --     2.7799                 2.5270                 3.4289
 Frc consts  --     0.8736                 0.7990                 1.1366
 IR Inten    --    20.3325                35.3315                 1.3200

                    58                     59                     60
                     A                      A                      A
 Frequencies --   758.0306               783.4039               786.7224
 Red. masses --     2.4166                 1.6643                 4.0913
 Frc consts  --     0.8181                 0.6018                 1.4919
 IR Inten    --    31.5109                23.9559                27.6641

                    61                     62                     63
                     A                      A                      A
 Frequencies --   799.4005               809.5101               811.2900
 Red. masses --     4.4092                 2.7326                 3.7828
 Frc consts  --     1.6601                 1.0551                 1.4669
 IR Inten    --     9.4126                18.3094                 7.6635

                    64                     65                     66
                     A                      A                      A
 Frequencies --   818.9050               835.2255               840.5034
 Red. masses --     8.1784                 9.6421                 7.1804
 Frc consts  --     3.2314                 3.9630                 2.9887
 IR Inten    --     2.5123                20.7042                15.2637

                    67                     68                     69
                     A                      A                      A
 Frequencies --   843.6958               851.9337               854.8667
 Red. masses --     1.8621                 8.1658                 2.1452
 Frc consts  --     0.7810                 3.4919                 0.9236
 IR Inten    --    81.6525                54.8183                 0.3684

                    70                     71                     72
                     A                      A                      A
 Frequencies --   859.9358               870.8137               876.7241
 Red. masses --     5.9148                 1.9657                 1.5163
 Frc consts  --     2.5770                 0.8782                 0.6867
 IR Inten    --    75.2770               141.9141                45.3802

                    73                     74                     75
                     A                      A                      A
 Frequencies --   886.1397               889.4699               922.1422
 Red. masses --     2.9842                 3.0519                 1.3857
 Frc consts  --     1.3806                 1.4226                 0.6943
 IR Inten    --     8.0906                68.0274                 2.7286

                    76                     77                     78
                     A                      A                      A
 Frequencies --   928.7675               937.5594               960.7317
 Red. masses --     7.0146                 1.4487                 1.9913
 Frc consts  --     3.5651                 0.7503                 1.0829
 IR Inten    --    11.2842                 6.3850                 1.7345

                    79                     80                     81
                     A                      A                      A
 Frequencies --   969.5226               973.8099               979.9125
 Red. masses --     1.4313                 1.0590                 1.0624
 Frc consts  --     0.7927                 0.5917                 0.6010
 IR Inten    --     1.1246               139.5622               107.2752

                    82                     83                     84
                     A                      A                      A
 Frequencies --   982.6042               997.7365              1008.7167
 Red. masses --     1.3064                 1.6177                 4.7085
 Frc consts  --     0.7432                 0.9488                 2.8227
 IR Inten    --     1.0145                11.7434                 3.0374

                    85                     86                     87
                     A                      A                      A
 Frequencies --  1017.0720              1054.4623              1091.5868
 Red. masses --     1.8947                 4.3673                 2.3702
 Frc consts  --     1.1548                 2.8611                 1.6640
 IR Inten    --     8.6616                10.9194                 3.4256

                    88                     89                     90
                     A                      A                      A
 Frequencies --  1100.2733              1117.7916              1127.0350
 Red. masses --     2.7387                 1.1241                 1.7966
 Frc consts  --     1.9534                 0.8275                 1.3445
 IR Inten    --     7.8607                40.5287                 0.6287

                    91                     92                     93
                     A                      A                      A
 Frequencies --  1131.0842              1137.4303              1140.7088
 Red. masses --     1.3234                 1.2858                 1.3718
 Frc consts  --     0.9975                 0.9801                 1.0517
 IR Inten    --    10.9484                12.9430                 1.0270

                    94                     95                     96
                     A                      A                      A
 Frequencies --  1157.2851              1172.6917              1182.8893
 Red. masses --     1.4096                 1.5952                 2.5358
 Frc consts  --     1.1123                 1.2925                 2.0905
 IR Inten    --     7.5459                22.0001                 0.8414

                    97                     98                     99
                     A                      A                      A
 Frequencies --  1189.2093              1203.5391              1217.5274
 Red. masses --     1.4243                 1.5270                 2.0418
 Frc consts  --     1.1867                 1.3032                 1.7833
 IR Inten    --     1.7054                26.3285                10.7673

                   100                    101                    102
                     A                      A                      A
 Frequencies --  1243.7967              1267.8649              1292.6164
 Red. masses --     3.6539                 1.9613                 2.2125
 Frc consts  --     3.3304                 1.8575                 2.1781
 IR Inten    --     8.4208                 2.3936                 3.8985

                   103                    104                    105
                     A                      A                      A
 Frequencies --  1310.1265              1315.9508              1329.1936
 Red. masses --     1.7163                 2.7981                 2.7891
 Frc consts  --     1.7357                 2.8549                 2.9033
 IR Inten    --     6.3888                 5.5636                14.7700

                   106                    107                    108
                     A                      A                      A
 Frequencies --  1329.8118              1336.2865              1341.9850
 Red. masses --     1.8212                 1.8902                 4.3679
 Frc consts  --     1.8975                 1.9886                 4.6347
 IR Inten    --    14.8419                12.7632                 6.4138

                   109                    110                    111
                     A                      A                      A
 Frequencies --  1350.5286              1354.1528              1376.0402
 Red. masses --     1.7627                 5.5050                 4.8437
 Frc consts  --     1.8942                 5.9477                 5.4037
 IR Inten    --     9.9699                 9.2712                54.9617

                   112                    113                    114
                     A                      A                      A
 Frequencies --  1398.8774              1406.2643              1423.3735
 Red. masses --     5.7872                 7.3472                 4.2858
 Frc consts  --     6.6724                 8.5606                 5.1159
 IR Inten    --     3.6931                25.2337                 0.8499

                   115                    116                    117
                     A                      A                      A
 Frequencies --  1445.0009              1453.9688              1473.0226
 Red. masses --     1.3463                 1.2095                 1.8657
 Frc consts  --     1.6563                 1.5064                 2.3851
 IR Inten    --     7.2365                 8.4895                18.0053

                   118                    119                    120
                     A                      A                      A
 Frequencies --  1485.1166              1495.5752              1513.2489
 Red. masses --     1.1082                 2.5257                 6.1469
 Frc consts  --     1.4401                 3.3285                 8.2933
 IR Inten    --    10.6873                10.9057                82.6638

                   121                    122                    123
                     A                      A                      A
 Frequencies --  1532.8730              1554.7793              1587.8967
 Red. masses --     6.6631                 6.7221                 6.8078
 Frc consts  --     9.2245                 9.5740                10.1135
 IR Inten    --     0.8206                 8.0742                39.6588

                   124                    125                    126
                     A                      A                      A
 Frequencies --  1599.4460              1615.9423              1626.6739
 Red. masses --     6.2347                 6.3132                 5.7255
 Frc consts  --     9.3974                 9.7130                 8.9261
 IR Inten    --    57.6853                 7.8096                 1.1425

                   127                    128                    129
                     A                      A                      A
 Frequencies --  1630.6023              1631.5306              2214.7541
 Red. masses --     6.3567                 6.2329                 1.0404
 Frc consts  --     9.9582                 9.7753                 3.0067
 IR Inten    --     8.0732                19.8770               198.3080

                   130                    131                    132
                     A                      A                      A
 Frequencies --  2220.1412              2227.4709              2232.0537
 Red. masses --     1.0360                 1.0461                 1.0415
 Frc consts  --     3.0086                 3.0580                 3.0572
 IR Inten    --   172.1945               174.3600               105.2724

                   133                    134                    135
                     A                      A                      A
 Frequencies --  3023.1992              3030.9889              3049.2797
 Red. masses --     1.0651                 1.0663                 1.0610
 Frc consts  --     5.7356                 5.7714                 5.8122
 IR Inten    --    31.9473                20.5117                 6.1270

                   136                    137                    138
                     A                      A                      A
 Frequencies --  3058.0598              3091.4611              3093.3819
 Red. masses --     1.0971                 1.0949                 1.0997
 Frc consts  --     6.0447                 6.1651                 6.1998
 IR Inten    --    13.7605                12.1060                 5.8357

                   139                    140                    141
                     A                      A                      A
 Frequencies --  3093.6494              3139.1494              3174.6954
 Red. masses --     1.0842                 1.0878                 1.0864
 Frc consts  --     6.1135                 6.3159                 6.4515
 IR Inten    --     4.2326                27.6169                 2.7643

                   142                    143                    144
                     A                      A                      A
 Frequencies --  3186.1186              3192.8125              3193.3258
 Red. masses --     1.0904                 1.0892                 1.0900
 Frc consts  --     6.5217                 6.5418                 6.5490
 IR Inten    --    22.1854                18.7560                30.1053

                   145                    146                    147
                     A                      A                      A
 Frequencies --  3193.6728              3201.2254              3211.2605
 Red. masses --     1.0941                 1.0966                 1.0926
 Frc consts  --     6.5748                 6.6211                 6.6383
 IR Inten    --     5.8413                25.4662                 3.2235

 - Thermochemistry -
 -------------------
 Temperature   298.150 Kelvin.  Pressure   1.00000 Atm.
 Atom     1 has atomic number 14 and mass  27.97693

 Molecular mass:   485.06205 amu.
 Principal axes and moments of inertia in atomic units:
                           1         2         3
     Eigenvalues --  7073.53997********************
           X            0.99999  -0.00386   0.00028
           Y            0.00385   0.99959   0.02841
           Z           -0.00039  -0.02841   0.99960
 This molecule is an asymmetric top.
 Rotational symmetry number  1.
 Warning -- assumption of classical behavior for rotation
           may cause significant error
 Rotational temperatures (Kelvin)      0.01224     0.00221     0.00212
 Rotational constants (GHZ):           0.25514     0.04606     0.04420
 Zero-point vibrational energy     963388.7 (Joules/Mol)
                                  230.25542 (Kcal/Mol)
 Warning -- explicit consideration of  44 degrees of freedom as
           vibrations may cause significant error
 Vibrational temperatures:     21.45    25.55    43.27    47.67    60.05
          (Kelvin)             71.09    87.86    93.45    96.57   130.50
                              195.59   204.48   220.66   234.93   247.58
                              289.56   292.03   319.37   327.30   334.19
                              390.37   397.97   469.99   480.99   510.70
                              542.13   571.03   619.18   676.86   678.77
                              687.85   710.75   716.62   726.43   736.68
                              757.48   772.26   795.28   800.13   817.66
                              846.55   850.17   857.93   883.18   897.88
                              908.93   927.07   941.78   970.56   995.93
                             1007.71  1015.52  1040.29  1041.42  1050.76
                             1054.01  1079.20  1090.64  1127.14  1131.92
                             1150.16  1164.70  1167.26  1178.22  1201.70
                             1209.30  1213.89  1225.74  1229.96  1237.25
                             1252.91  1261.41  1274.96  1279.75  1326.76
                             1336.29  1348.94  1382.28  1394.93  1401.09
                             1409.87  1413.75  1435.52  1451.32  1463.34
                             1517.13  1570.55  1583.05  1608.25  1621.55
                             1627.38  1636.51  1641.22  1665.07  1687.24
                             1701.91  1711.00  1731.62  1751.75  1789.54
                             1824.17  1859.78  1884.98  1893.36  1912.41
                             1913.30  1922.62  1930.81  1943.11  1948.32
                             1979.81  2012.67  2023.30  2047.91  2079.03
                             2091.93  2119.35  2136.75  2151.80  2177.22
                             2205.46  2236.98  2284.63  2301.24  2324.98
                             2340.42  2346.07  2347.41  3186.53  3194.28
                             3204.83  3211.42  4349.70  4360.91  4387.23
                             4399.86  4447.92  4450.68  4451.07  4516.53
                             4567.67  4584.11  4593.74  4594.48  4594.98
                             4605.84  4620.28

 Zero-point correction=                           0.366935 (Hartree/Particle)
 Thermal correction to Energy=                    0.393901
 Thermal correction to Enthalpy=                  0.394845
 Thermal correction to Gibbs Free Energy=         0.306420
 Sum of electronic and zero-point Energies=          -2536.674575
 Sum of electronic and thermal Energies=             -2536.647610
 Sum of electronic and thermal Enthalpies=           -2536.646665
 Sum of electronic and thermal Free Energies=        -2536.735091

                     E (Thermal)             CV                S
                      KCal/Mol        Cal/Mol-Kelvin    Cal/Mol-Kelvin
 Total                  247.177            107.787            186.107
 Electronic               0.000              0.000              0.000
 Translational            0.889              2.981             44.425
 Rotational               0.889              2.981             37.668
 Vibrational            245.399            101.825            104.014
 Vibration     1          0.593              1.986              7.218
 Vibration     2          0.593              1.986              6.870
 Vibration     3          0.594              1.984              5.825
 Vibration     4          0.594              1.983              5.633
 Vibration     5          0.594              1.981              5.175
 Vibration     6          0.595              1.978              4.841
 Vibration     7          0.597              1.973              4.423
 Vibration     8          0.597              1.971              4.301
 Vibration     9          0.598              1.970              4.236
 Vibration    10          0.602              1.956              3.645
 Vibration    11          0.614              1.917              2.860
 Vibration    12          0.616              1.911              2.775
 Vibration    13          0.619              1.899              2.630
 Vibration    14          0.623              1.888              2.511
 Vibration    15          0.626              1.877              2.413
 Vibration    16          0.638              1.838              2.122
 Vibration    17          0.639              1.836              2.106
 Vibration    18          0.648              1.808              1.943
 Vibration    19          0.651              1.799              1.899
 Vibration    20          0.653              1.792              1.861
 Vibration    21          0.675              1.726              1.588
 Vibration    22          0.678              1.717              1.555
 Vibration    23          0.710              1.622              1.277
 Vibration    24          0.716              1.607              1.239
 Vibration    25          0.731              1.565              1.144
 Vibration    26          0.747              1.520              1.052
 Vibration    27          0.763              1.477              0.974
 Vibration    28          0.792              1.404              0.857
 Vibration    29          0.827              1.316              0.736
 Vibration    30          0.829              1.313              0.733
 Vibration    31          0.835              1.299              0.715
 Vibration    32          0.850              1.263              0.673
 Vibration    33          0.854              1.254              0.663
 Vibration    34          0.860              1.239              0.646
 Vibration    35          0.867              1.223              0.629
 Vibration    36          0.881              1.191              0.595
 Vibration    37          0.892              1.169              0.572
 Vibration    38          0.908              1.134              0.539
 Vibration    39          0.912              1.126              0.532
 Vibration    40          0.924              1.100              0.508
 Vibration    41          0.946              1.057              0.470
 Vibration    42          0.948              1.051              0.466
 Vibration    43          0.954              1.040              0.456
 Vibration    44          0.973              1.003              0.426

 Optimization completed.
    -- Stationary point found.
 Normal termination of Gaussian 09 at Mon Dec 30 23:48:21 2013.
