 Gaussian 09, Revision C.01,
 Gaussian 09:  EM64L-G09RevC.01 23-Sep-2011

 --------------------------------------------
 #B3LYP/6-31++G(d,p) opt scf=direct freq test
 --------------------------------------------

 Geom opt of No.26 candidate from the CEPDB database with SMILE code of
  [SiH2]1C=c2ccc3c4nsnc4c(cc3c2=C1)-c1cc2ccccc2[nH]1, HPC, 20131227, Sh
 uo Dai, Gaussian09
 ----------------------------------------------------------------------
 Charge =  0 Multiplicity = 1

 SCF Done:  E(RB3LYP) =  -1621.58969420     A.U. after   24 cycles
 SCF Done:  E(RB3LYP) =  -1621.64835814     A.U. after   23 cycles
 SCF Done:  E(RB3LYP) =  -1621.69053137     A.U. after   23 cycles
 SCF Done:  E(RB3LYP) =  -1621.73572500     A.U. after   18 cycles
 SCF Done:  E(RB3LYP) =  -1621.80370668     A.U. after   24 cycles
 SCF Done:  E(RB3LYP) =  -1621.81826056     A.U. after   23 cycles
 SCF Done:  E(RB3LYP) =  -1621.82497219     A.U. after   23 cycles
 SCF Done:  E(RB3LYP) =  -1621.82957608     A.U. after   24 cycles
 SCF Done:  E(RB3LYP) =  -1621.83207754     A.U. after   23 cycles
 SCF Done:  E(RB3LYP) =  -1621.83296188     A.U. after   18 cycles
 SCF Done:  E(RB3LYP) =  -1621.88144499     A.U. after   13 cycles
 SCF Done:  E(RB3LYP) =  -1621.88152143     A.U. after   13 cycles
 SCF Done:  E(RB3LYP) =  -1621.88154020     A.U. after   12 cycles
 SCF Done:  E(RB3LYP) =  -1621.88155231     A.U. after   11 cycles
 SCF Done:  E(RB3LYP) =  -1621.88155682     A.U. after   11 cycles
 SCF Done:  E(RB3LYP) =  -1621.88155831     A.U. after   11 cycles
 SCF Done:  E(RB3LYP) =  -1621.88155881     A.U. after   10 cycles
 SCF Done:  E(RB3LYP) =  -1621.88155894     A.U. after   10 cycles
 SCF Done:  E(RB3LYP) =  -1621.88155893     A.U. after    9 cycles
 Optimization completed.
    -- Stationary point found.
 Normal termination of Gaussian 09 at Sun Dec 29 03:19:14 2013.

 ----------------------------------------------------------------------
 #N Geom=AllCheck Guess=TCheck SCRF=Check Test GenChk RB3LYP/6-31++G(d,
 p) Freq
 ----------------------------------------------------------------------

 Geom opt of No.26 candidate from the CEPDB database with SMILE code of
  [SiH2]1C=c2ccc3c4nsnc4c(cc3c2=C1)-c1cc2ccccc2[nH]1, HPC, 20131227, Sh
 uo Dai, Gaussian09
 ----------------------------------------------------------------------
 Charge =  0 Multiplicity = 1

                         Standard orientation:
 ---------------------------------------------------------------------
 Center     Atomic      Atomic             Coordinates (Angstroms)
 Number     Number       Type             X           Y           Z
 ---------------------------------------------------------------------
      1         14           0       -4.505749   -2.933885    0.934158
      2          1           0       -5.019121   -4.324118    0.950835
      3          1           0       -4.287117   -2.332346    2.265788
      4          6           0       -4.971178   -1.867366   -0.532852
      5          6           0       -4.354328   -0.497612   -0.403992
      6          6           0       -4.656008    0.856563   -0.255422
      7          6           0       -3.563991    1.721960   -0.128806
      8          6           0       -2.236273    1.248455   -0.121387
      9          6           0       -1.097030    2.130776    0.005614
     10          7           0       -1.162055    3.454421    0.121369
     11         16           0        0.383189    4.016686    0.237442
     12          7           0        1.181885    2.570913    0.143138
     13          6           0        0.261181    1.613794    0.018684
     14          6           0        0.530367    0.188554   -0.095202
     15          6           0       -0.572095   -0.623167   -0.227915
     16          6           0       -1.927764   -0.147109   -0.242663
     17          6           0       -3.044465   -0.979872   -0.401584
     18          6           0       -3.454116   -2.424147   -0.530153
     19          6           0        1.887423   -0.353146   -0.071721
     20          6           0        2.315957   -1.672521   -0.130414
     21          6           0        3.742256   -1.667137   -0.076062
     22          6           0        4.732939   -2.670872   -0.095370
     23          6           0        6.068734   -2.299054   -0.023998
     24          6           0        6.445370   -0.938268    0.067247
     25          6           0        5.493229    0.075026    0.089223
     26          6           0        4.145319   -0.302135    0.017123
     27          7           0        3.005505    0.464776    0.017535
     28          1           0        2.941115    1.472776    0.084228
     29          1           0       -5.707390   -2.136977   -1.286032
     30          1           0       -5.672079    1.239466   -0.261456
     31          1           0       -3.723231    2.791404   -0.036256
     32          1           0       -0.429308   -1.694647   -0.325428
     33          1           0       -3.065930   -3.107244   -1.281872
     34          1           0        1.683468   -2.545761   -0.200350
     35          1           0        4.453401   -3.718502   -0.165514
     36          1           0        6.841368   -3.062182   -0.038294
     37          1           0        7.498997   -0.680595    0.121274
     38          1           0        5.784764    1.119046    0.159406
 ---------------------------------------------------------------------

 SCF Done:  E(RB3LYP) =  -1621.88155893     A.U. after    2 cycles

 The electronic state is 1-A.
 Alpha  occ. eigenvalues --  -88.98160 -66.15984 -14.38589 -14.38145 -14.37589
 Alpha  occ. eigenvalues --  -10.26074 -10.25676 -10.23563 -10.23193 -10.22232
 Alpha  occ. eigenvalues --  -10.22173 -10.21916 -10.21651 -10.21602 -10.21531
 Alpha  occ. eigenvalues --  -10.21433 -10.21331 -10.20884 -10.20788 -10.19192
 Alpha  occ. eigenvalues --  -10.18944 -10.18870 -10.18849 -10.18403 -10.18348
 Alpha  occ. eigenvalues --   -8.03492  -6.00081  -5.99500  -5.99177  -5.30814
 Alpha  occ. eigenvalues --   -3.66691  -3.66683  -3.66598  -1.02938  -0.98286
 Alpha  occ. eigenvalues --   -0.91078  -0.90405  -0.86861  -0.84028  -0.82071
 Alpha  occ. eigenvalues --   -0.78785  -0.78060  -0.76579  -0.73576  -0.71736
 Alpha  occ. eigenvalues --   -0.70617  -0.66206  -0.65658  -0.63180  -0.61713
 Alpha  occ. eigenvalues --   -0.60868  -0.59371  -0.58417  -0.56579  -0.54386
 Alpha  occ. eigenvalues --   -0.53880  -0.52792  -0.52703  -0.50260  -0.49675
 Alpha  occ. eigenvalues --   -0.47345  -0.46420  -0.45842  -0.45139  -0.44502
 Alpha  occ. eigenvalues --   -0.43615  -0.43133  -0.42664  -0.42183  -0.41928
 Alpha  occ. eigenvalues --   -0.40698  -0.40157  -0.39771  -0.39290  -0.38107
 Alpha  occ. eigenvalues --   -0.36258  -0.36103  -0.35770  -0.35556  -0.34065
 Alpha  occ. eigenvalues --   -0.33584  -0.33093  -0.32805  -0.31438  -0.30725
 Alpha  occ. eigenvalues --   -0.29362  -0.28410  -0.27720  -0.25394  -0.22836
 Alpha  occ. eigenvalues --   -0.21994  -0.19779
 Alpha virt. eigenvalues --   -0.09629  -0.06062  -0.03438  -0.01649  -0.01507
 Alpha virt. eigenvalues --   -0.01184  -0.00591   0.00012   0.00199   0.00363
 Alpha virt. eigenvalues --    0.01044   0.01159   0.01505   0.01757   0.01960

 Mulliken atomic charges:
              1
     1  Si   0.519415
     2  H   -0.071183
     3  H   -0.052587
     4  C   -0.324968
     5  C   -0.041550
     6  C   -0.138052
     7  C   -0.123426
     8  C    0.289242
     9  C    0.225917
    10  N   -0.366082
    11  S    0.941426
    12  N   -0.535585
    13  C   -0.321471
    14  C    0.222351
    15  C   -0.635938
    16  C   -0.341111
    17  C   -0.192009
    18  C   -0.379941
    19  C    0.642068
    20  C    0.768372
    21  C    1.299573
    22  C   -0.628039
    23  C    0.250577
    24  C   -0.437290
    25  C   -0.662068
    26  C   -1.271984
    27  N   -0.151627
    28  H    0.412367
    29  H    0.176885
    30  H    0.128782
    31  H    0.146613
    32  H   -0.038995
    33  H    0.167279
    34  H    0.131274
    35  H    0.093453
    36  H    0.102004
    37  H    0.095955
    38  H    0.100353
 Sum of Mulliken atomic charges =  -0.00000

 Dipole moment (field-independent basis, Debye):
    X=             -3.0947    Y=             -1.3145    Z=              0.1260  Tot=              3.3647
 Quadrupole moment (field-independent basis, Debye-Ang):
   XX=           -148.2632   YY=           -147.3842   ZZ=           -163.6263
   XY=             13.3520   XZ=              0.2187   YZ=              0.6889

  Exact polarizability: 548.496  14.224 367.480   4.006   0.696 163.069
 Approx polarizability: 820.578  34.707 637.891  20.498  15.414 269.157

                     1                      2                      3
                     A                      A                      A
 Frequencies --    27.5386                36.6637                54.7469
 Red. masses --     4.2003                 5.4988                 7.4316
 Frc consts  --     0.0019                 0.0044                 0.0131
 IR Inten    --     0.2795                 0.1328                 0.4019

                     4                      5                      6
                     A                      A                      A
 Frequencies --    64.1796                89.7541               126.2240
 Red. masses --     6.8466                 5.6375                 5.6233
 Frc consts  --     0.0166                 0.0268                 0.0528
 IR Inten    --     0.7456                 0.1051                 0.2733

                     7                      8                      9
                     A                      A                      A
 Frequencies --   143.3704               165.7110               190.2148
 Red. masses --     6.8032                 8.9687                 4.7852
 Frc consts  --     0.0824                 0.1451                 0.1020
 IR Inten    --     0.0008                 0.7060                 0.7952

                    10                     11                     12
                     A                      A                      A
 Frequencies --   233.1034               242.7257               246.1266
 Red. masses --     6.4395                 4.7706                 4.3829
 Frc consts  --     0.2062                 0.1656                 0.1564
 IR Inten    --     0.3847                 0.7615                 0.4605

                    13                     14                     15
                     A                      A                      A
 Frequencies --   249.3405               281.4952               311.6302
 Red. masses --     6.7157                 6.7031                 5.9521
 Frc consts  --     0.2460                 0.3129                 0.3406
 IR Inten    --     2.3812                 3.3988                 1.0494

                    16                     17                     18
                     A                      A                      A
 Frequencies --   347.3564               368.6018               425.0222
 Red. masses --     3.6379                 5.9683                 3.7247
 Frc consts  --     0.2586                 0.4778                 0.3964
 IR Inten    --     9.0608                 1.0809                 0.2907

                    19                     20                     21
                     A                      A                      A
 Frequencies --   441.6330               468.8191               496.1597
 Red. masses --     3.0842                 4.3565                 5.8804
 Frc consts  --     0.3544                 0.5642                 0.8529
 IR Inten    --     5.7853                 9.4785                 5.3267

                    22                     23                     24
                     A                      A                      A
 Frequencies --   501.2956               502.9630               522.0545
 Red. masses --     3.5892                 4.4069                 4.0432
 Frc consts  --     0.5314                 0.6568                 0.6492
 IR Inten    --     4.4684                 2.0425                 0.8337

                    25                     26                     27
                     A                      A                      A
 Frequencies --   554.8500               564.0267               571.4034
 Red. masses --     4.2804                 2.0178                 2.8246
 Frc consts  --     0.7764                 0.3782                 0.5434
 IR Inten    --    13.4117                 9.8191                 6.7302

                    28                     29                     30
                     A                      A                      A
 Frequencies --   590.5446               597.7636               607.1387
 Red. masses --     2.2571                 3.8105                 4.2240
 Frc consts  --     0.4638                 0.8022                 0.9174
 IR Inten    --     4.4589                 5.1051                 3.3844

                    31                     32                     33
                     A                      A                      A
 Frequencies --   618.3474               629.6074               637.4725
 Red. masses --     6.6712                 2.5885                 2.5190
 Frc consts  --     1.5029                 0.6046                 0.6031
 IR Inten    --     3.0152                22.5887                20.0297

                    34                     35                     36
                     A                      A                      A
 Frequencies --   639.9918               662.6872               683.2394
 Red. masses --     3.9834                 1.4380                 2.6456
 Frc consts  --     0.9613                 0.3721                 0.7277
 IR Inten    --     3.0112                31.9547                23.1109

                    37                     38                     39
                     A                      A                      A
 Frequencies --   691.4710               734.5554               737.8718
 Red. masses --     3.2151                 3.3585                 5.9025
 Frc consts  --     0.9057                 1.0677                 1.8934
 IR Inten    --     7.7295                13.5139                 2.6408

                    40                     41                     42
                     A                      A                      A
 Frequencies --   744.2079               761.4773               767.4740
 Red. masses --     1.4603                 2.6400                 6.6334
 Frc consts  --     0.4765                 0.9019                 2.3020
 IR Inten    --    23.8754                44.1273                 3.0323

                    43                     44                     45
                     A                      A                      A
 Frequencies --   773.0787               796.9663               807.0484
 Red. masses --     4.5795                 3.4654                 1.7660
 Frc consts  --     1.6126                 1.2968                 0.6777
 IR Inten    --     3.8688                 6.9136                36.1860

                    46                     47                     48
                     A                      A                      A
 Frequencies --   814.8351               832.4783               840.1938
 Red. masses --     5.4629                 1.6211                 5.5744
 Frc consts  --     2.1370                 0.6619                 2.3185
 IR Inten    --    25.5205                16.7196                21.0705

                    49                     50                     51
                     A                      A                      A
 Frequencies --   842.9681               847.4816               858.9646
 Red. masses --     1.5764                10.2376                 1.6098
 Frc consts  --     0.6600                 4.3322                 0.6998
 IR Inten    --    20.2409                44.9707                 1.4387

                    52                     53                     54
                     A                      A                      A
 Frequencies --   868.1794               885.3362               906.8674
 Red. masses --     3.8839                 1.2796                 4.3006
 Frc consts  --     1.7248                 0.5909                 2.0839
 IR Inten    --     2.4585                75.4693                 4.1608

                    55                     56                     57
                     A                      A                      A
 Frequencies --   908.1348               935.9266               938.9762
 Red. masses --     1.6147                 3.5338                 1.3619
 Frc consts  --     0.7846                 1.8238                 0.7074
 IR Inten    --    13.9205                66.5932                 2.0134

                    58                     59                     60
                     A                      A                      A
 Frequencies --   957.9544               969.2846               976.5761
 Red. masses --     1.6083                 1.3436                 1.2662
 Frc consts  --     0.8696                 0.7437                 0.7115
 IR Inten    --    75.2023                 0.4710                 0.0199

                    61                     62                     63
                     A                      A                      A
 Frequencies --   980.5417              1026.5076              1037.3939
 Red. masses --     2.2230                 2.8377                 2.8090
 Frc consts  --     1.2593                 1.7617                 1.7811
 IR Inten    --    10.1793                 6.7150                 1.8037

                    64                     65                     66
                     A                      A                      A
 Frequencies --  1047.9958              1070.0035              1136.5949
 Red. masses --     2.4789                 3.0302                 1.4170
 Frc consts  --     1.6041                 2.0441                 1.0785
 IR Inten    --     0.2354                 0.4052                 0.5158

                    67                     68                     69
                     A                      A                      A
 Frequencies --  1139.8644              1150.0455              1167.5232
 Red. masses --     1.5680                 1.5277                 1.6353
 Frc consts  --     1.2003                 1.1905                 1.3133
 IR Inten    --     1.8514                26.2095                31.8530

                    70                     71                     72
                     A                      A                      A
 Frequencies --  1173.9668              1189.9578              1233.3897
 Red. masses --     1.2097                 1.6693                 2.8718
 Frc consts  --     0.9823                 1.3927                 2.5740
 IR Inten    --    18.9928                61.5146                44.0196

                    73                     74                     75
                     A                      A                      A
 Frequencies --  1244.4373              1258.6008              1268.0975
 Red. masses --     2.2461                 1.8091                 2.3732
 Frc consts  --     2.0494                 1.6884                 2.2485
 IR Inten    --    46.9343                14.4050                 7.8875

                    76                     77                     78
                     A                      A                      A
 Frequencies --  1287.1300              1331.3944              1339.8664
 Red. masses --     2.1290                 4.4667                 3.4595
 Frc consts  --     2.0782                 4.6650                 3.6592
 IR Inten    --    21.7740                31.1573                27.2151

                    79                     80                     81
                     A                      A                      A
 Frequencies --  1361.1005              1376.2078              1395.8384
 Red. masses --     5.6710                 2.4956                 4.7072
 Frc consts  --     6.1900                 2.7848                 5.4036
 IR Inten    --    23.4583                24.3485                77.0385

                    82                     83                     84
                     A                      A                      A
 Frequencies --  1403.0009              1417.7825              1446.1262
 Red. masses --     6.9613                 5.2868                 2.9786
 Frc consts  --     8.0733                 6.2613                 3.6701
 IR Inten    --    10.9327                 5.4527                29.7872

                    85                     86                     87
                     A                      A                      A
 Frequencies --  1460.6442              1474.5714              1481.8196
 Red. masses --     4.0353                 4.9340                 3.3219
 Frc consts  --     5.0724                 6.3210                 4.2976
 IR Inten    --    20.7535                24.5347                29.2076

                    88                     89                     90
                     A                      A                      A
 Frequencies --  1533.5356              1542.8416              1568.8150
 Red. masses --     3.1541                 6.5997                 5.3559
 Frc consts  --     4.3703                 9.2558                 7.7666
 IR Inten    --    11.1437                22.7089                34.3834

                    91                     92                     93
                     A                      A                      A
 Frequencies --  1589.4515              1620.1863              1626.7057
 Red. masses --     6.8277                 5.1318                 6.7447
 Frc consts  --    10.1629                 7.9369                10.5155
 IR Inten    --    32.0793                 0.3018                24.0277

                    94                     95                     96
                     A                      A                      A
 Frequencies --  1646.5948              1661.2145              2240.8007
 Red. masses --     7.6793                 6.4641                 1.0310
 Frc consts  --    12.2671                10.5102                 3.0501
 IR Inten    --    43.0357                 3.1560               240.8933

                    97                     98                     99
                     A                      A                      A
 Frequencies --  2280.5079              3172.2991              3177.3097
 Red. masses --     1.0544                 1.0888                 1.0853
 Frc consts  --     3.2310                 6.4557                 6.4552
 IR Inten    --    90.9776                 2.7283                 1.1350

                   100                    101                    102
                     A                      A                      A
 Frequencies --  3179.0281              3184.4704              3194.5137
 Red. masses --     1.0903                 1.0884                 1.0939
 Frc consts  --     6.4918                 6.5031                 6.5769
 IR Inten    --    14.5897                 0.7644                29.8565

                   103                    104                    105
                     A                      A                      A
 Frequencies --  3195.2158              3201.1231              3205.1986
 Red. masses --     1.0888                 1.0896                 1.0970
 Frc consts  --     6.5496                 6.5786                 6.6402
 IR Inten    --     4.6581                 7.5884                38.1009

                   106                    107                    108
                     A                      A                      A
 Frequencies --  3212.7448              3259.0616              3596.1215
 Red. masses --     1.0941                 1.0950                 1.0819
 Frc consts  --     6.6537                 6.8523                 8.2437
 IR Inten    --     8.1031                 2.6101               208.1711

 - Thermochemistry -
 -------------------
 Temperature   298.150 Kelvin.  Pressure   1.00000 Atm.
 Atom     1 has atomic number 14 and mass  27.97693

 Molecular mass:   355.05995 amu.
 Principal axes and moments of inertia in atomic units:
                           1         2         3
     Eigenvalues --  5941.58166********************
           X            1.00000   0.00033  -0.00018
           Y           -0.00033   1.00000  -0.00071
           Z            0.00018   0.00071   1.00000
 This molecule is an asymmetric top.
 Rotational symmetry number  1.
 Warning -- assumption of classical behavior for rotation
           may cause significant error
 Rotational temperatures (Kelvin)      0.01458     0.00544     0.00403
 Rotational constants (GHZ):           0.30375     0.11329     0.08389
 Zero-point vibrational energy     723024.5 (Joules/Mol)
                                  172.80700 (Kcal/Mol)
 Warning -- explicit consideration of  31 degrees of freedom as
           vibrations may cause significant error
 Vibrational temperatures:     39.62    52.75    78.77    92.34   129.14
          (Kelvin)            181.61   206.28   238.42   273.68   335.38
                              349.23   354.12   358.74   405.01   448.37
                              499.77   530.34   611.51   635.41   674.53
                              713.86   721.25   723.65   751.12   798.30
                              811.51   822.12   849.66   860.05   873.54
                              889.66   905.86   917.18   920.80   953.46
                              983.03   994.87  1056.86  1061.63  1070.75
                             1095.59  1104.22  1112.29  1146.66  1161.16
                             1172.36  1197.75  1208.85  1212.84  1219.34
                             1235.86  1249.12  1273.80  1304.78  1306.60
                             1346.59  1350.98  1378.28  1394.58  1405.07
                             1410.78  1476.91  1492.58  1507.83  1539.49
                             1635.30  1640.01  1654.66  1679.80  1689.07
                             1712.08  1774.57  1790.47  1810.84  1824.51
                             1851.89  1915.58  1927.77  1958.32  1980.05
                             2008.30  2018.60  2039.87  2080.65  2101.54
                             2121.58  2132.01  2206.41  2219.80  2257.17
                             2286.86  2331.08  2340.46  2369.08  2390.11
                             3224.01  3281.14  4564.23  4571.43  4573.91
                             4581.74  4596.19  4597.20  4605.70  4611.56
                             4622.42  4689.06  5174.01

 Zero-point correction=                           0.275385 (Hartree/Particle)
 Thermal correction to Energy=                    0.294094
 Thermal correction to Enthalpy=                  0.295038
 Thermal correction to Gibbs Free Energy=         0.227560
 Sum of electronic and zero-point Energies=          -1621.606173
 Sum of electronic and thermal Energies=             -1621.587465
 Sum of electronic and thermal Enthalpies=           -1621.586521
 Sum of electronic and thermal Free Energies=        -1621.653999

                     E (Thermal)             CV                S
                      KCal/Mol        Cal/Mol-Kelvin    Cal/Mol-Kelvin
 Total                  184.547             77.911            142.019
 Electronic               0.000              0.000              0.000
 Translational            0.889              2.981             43.495
 Rotational               0.889              2.981             35.964
 Vibrational            182.769             71.949             62.561
 Vibration     1          0.593              1.984              5.999
 Vibration     2          0.594              1.982              5.432
 Vibration     3          0.596              1.976              4.638
 Vibration     4          0.597              1.971              4.324
 Vibration     5          0.602              1.956              3.665
 Vibration     6          0.611              1.927              3.003
 Vibration     7          0.616              1.910              2.758
 Vibration     8          0.624              1.885              2.484
 Vibration     9          0.634              1.853              2.226
 Vibration    10          0.654              1.790              1.855
 Vibration    11          0.659              1.775              1.783
 Vibration    12          0.661              1.769              1.758
 Vibration    13          0.662              1.764              1.735
 Vibration    14          0.681              1.708              1.525
 Vibration    15          0.700              1.652              1.354
 Vibration    16          0.725              1.581              1.178
 Vibration    17          0.741              1.537              1.086
 Vibration    18          0.787              1.416              0.875
 Vibration    19          0.801              1.379              0.821
 Vibration    20          0.826              1.319              0.741
 Vibration    21          0.852              1.259              0.668
 Vibration    22          0.857              1.247              0.655
 Vibration    23          0.858              1.243              0.651
 Vibration    24          0.877              1.201              0.605
 Vibration    25          0.910              1.129              0.534
 Vibration    26          0.920              1.109              0.516
 Vibration    27          0.928              1.093              0.502
 Vibration    28          0.948              1.052              0.466
 Vibration    29          0.956              1.037              0.454
 Vibration    30          0.966              1.017              0.438
 Vibration    31          0.978              0.993              0.419

 Optimization completed.
    -- Stationary point found.
 Normal termination of Gaussian 09 at Sun Dec 29 04:23:17 2013.
