 Gaussian 09, Revision C.01,
 Gaussian 09:  EM64L-G09RevC.01 23-Sep-2011

 --------------------------------------------
 #B3LYP/6-31++G(d,p) opt scf=direct freq test
 --------------------------------------------

 Geom opt of No.53 candidate from the CEPDB database with SMILE code of
  c1coc(c1)-c1ncc(-c2cnc(-c3cccc4cocc34)c3nsnc23)c2nsnc12, HPC, 2013122
 7, Shuo Dai, Gaussian09
 ----------------------------------------------------------------------
 Charge =  0 Multiplicity = 1

 SCF Done:  E(RB3LYP) =  -2119.61490378     A.U. after   25 cycles
 SCF Done:  E(RB3LYP) =  -2119.64179787     A.U. after   18 cycles
 SCF Done:  E(RB3LYP) =  -2119.65581508     A.U. after   17 cycles
 SCF Done:  E(RB3LYP) =  -2119.66025479     A.U. after   17 cycles
 SCF Done:  E(RB3LYP) =  -2119.66157277     A.U. after   15 cycles
 SCF Done:  E(RB3LYP) =  -2119.66212590     A.U. after   15 cycles
 SCF Done:  E(RB3LYP) =  -2119.66218321     A.U. after   15 cycles
 SCF Done:  E(RB3LYP) =  -2119.66239551     A.U. after   14 cycles
 SCF Done:  E(RB3LYP) =  -2119.66255899     A.U. after   14 cycles
 SCF Done:  E(RB3LYP) =  -2119.66210269     A.U. after   18 cycles
 SCF Done:  E(RB3LYP) =  -2119.66305288     A.U. after   14 cycles
 SCF Done:  E(RB3LYP) =  -2119.66340695     A.U. after   15 cycles
 SCF Done:  E(RB3LYP) =  -2119.66358954     A.U. after   14 cycles
 SCF Done:  E(RB3LYP) =  -2119.66363483     A.U. after   13 cycles
 SCF Done:  E(RB3LYP) =  -2119.66364944     A.U. after   13 cycles
 SCF Done:  E(RB3LYP) =  -2119.66365246     A.U. after   11 cycles
 SCF Done:  E(RB3LYP) =  -2119.66365297     A.U. after   11 cycles
 SCF Done:  E(RB3LYP) =  -2119.66365320     A.U. after   10 cycles
 SCF Done:  E(RB3LYP) =  -2119.66365319     A.U. after   10 cycles
 Optimization completed.
    -- Stationary point found.
 Normal termination of Gaussian 09 at Sun Dec 29 14:23:11 2013.

 ----------------------------------------------------------------------
 #N Geom=AllCheck Guess=TCheck SCRF=Check Test GenChk RB3LYP/6-31++G(d,
 p) Freq
 ----------------------------------------------------------------------

 Geom opt of No.53 candidate from the CEPDB database with SMILE code of
  c1coc(c1)-c1ncc(-c2cnc(-c3cccc4cocc34)c3nsnc23)c2nsnc12, HPC, 2013122
 7, Shuo Dai, Gaussian09
 ----------------------------------------------------------------------
 Charge =  0 Multiplicity = 1

                         Standard orientation:
 ---------------------------------------------------------------------
 Center     Atomic      Atomic             Coordinates (Angstroms)
 Number     Number       Type             X           Y           Z
 ---------------------------------------------------------------------
      1          6           0       -8.073139   -0.703042   -0.450314
      2          6           0       -7.564700   -1.955979   -0.658684
      3          8           0       -6.212085   -1.942573   -0.598596
      4          6           0       -5.827710   -0.650162   -0.344985
      5          6           0       -6.948964    0.147381   -0.246035
      6          6           0       -4.406747   -0.390385   -0.237383
      7          7           0       -3.557443   -1.395027   -0.379454
      8          6           0       -2.216889   -1.195264   -0.287026
      9          6           0       -1.572471    0.015231   -0.059769
     10          6           0       -0.106870    0.131562   -0.004819
     11          6           0        0.569042    1.286401   -0.376474
     12          7           0        1.917358    1.461890   -0.391900
     13          6           0        2.750845    0.502741   -0.020255
     14          6           0        4.197351    0.814932   -0.046169
     15          6           0        4.584417    2.107978    0.251410
     16          6           0        5.946764    2.538681    0.233421
     17          6           0        6.961353    1.685380   -0.115248
     18          6           0        6.624059    0.344096   -0.459454
     19          6           0        7.373857   -0.729479   -0.886373
     20          8           0        6.557986   -1.789209   -1.109335
     21          6           0        5.277579   -1.427749   -0.830114
     22          6           0        5.239519   -0.114777   -0.415442
     23          6           0        2.190920   -0.747041    0.436919
     24          7           0        2.861706   -1.791646    0.937573
     25         16           0        1.745171   -2.913055    1.359898
     26          7           0        0.373227   -2.119982    0.932669
     27          6           0        0.750023   -0.931373    0.440571
     28          6           0       -2.458462    1.135241    0.102840
     29          7           0       -2.124096    2.408085    0.357795
     30         16           0       -3.523889    3.257670    0.473683
     31          7           0       -4.603920    2.050395    0.207874
     32          6           0       -3.891984    0.935288    0.019419
     33          1           0       -9.117086   -0.424748   -0.443338
     34          1           0       -8.016163   -2.916626   -0.854080
     35          1           0       -6.947673    1.207950   -0.049772
     36          1           0       -1.624568   -2.093485   -0.412517
     37          1           0        0.003383    2.150611   -0.702585
     38          1           0        3.812654    2.823985    0.510847
     39          1           0        6.168212    3.567544    0.500431
     40          1           0        7.995311    2.016615   -0.136269
     41          1           0        8.424229   -0.883691   -1.074676
     42          1           0        4.539395   -2.201706   -0.940000
 ---------------------------------------------------------------------

 SCF Done:  E(RB3LYP) =  -2119.66365319     A.U. after    2 cycles

 The electronic state is 1-A.
 Alpha  occ. eigenvalues --  -88.99814 -88.99698 -19.23987 -19.23390 -14.39791
 Alpha  occ. eigenvalues --  -14.39480 -14.39226 -14.39034 -14.35255 -14.35245
 Alpha  occ. eigenvalues --  -10.26924 -10.26914 -10.26781 -10.26714 -10.26483
 Alpha  occ. eigenvalues --  -10.26406 -10.26205 -10.26059 -10.24796 -10.24505
 Alpha  occ. eigenvalues --  -10.24102 -10.23982 -10.23470 -10.23417 -10.21962
 Alpha  occ. eigenvalues --  -10.21124 -10.20980 -10.20890 -10.20742 -10.20735
 Alpha  occ. eigenvalues --  -10.20412 -10.20322  -8.05113  -8.04985  -6.01673
 Alpha  occ. eigenvalues --   -6.01542  -6.01089  -6.00956  -6.00869  -6.00753
 Alpha  occ. eigenvalues --   -1.12990  -1.12864  -1.04370  -1.04193  -0.96347
 Alpha  occ. eigenvalues --   -0.96170  -0.91858  -0.91306  -0.87047  -0.84372
 Alpha  occ. eigenvalues --   -0.82178  -0.81002  -0.80392  -0.80109  -0.78331
 Alpha  occ. eigenvalues --   -0.77350  -0.75260  -0.73439  -0.69304  -0.67946
 Alpha  occ. eigenvalues --   -0.65670  -0.65042  -0.64503  -0.63595  -0.61737
 Alpha  occ. eigenvalues --   -0.61321  -0.60904  -0.58118  -0.56979  -0.55465
 Alpha  occ. eigenvalues --   -0.55161  -0.53687  -0.53399  -0.52242  -0.51134
 Alpha  occ. eigenvalues --   -0.50387  -0.48358  -0.48124  -0.47789  -0.47452
 Alpha  occ. eigenvalues --   -0.47253  -0.46643  -0.46594  -0.46489  -0.44722
 Alpha  occ. eigenvalues --   -0.44464  -0.43663  -0.42701  -0.42068  -0.41609
 Alpha  occ. eigenvalues --   -0.40602  -0.40405  -0.40002  -0.39776  -0.38806
 Alpha  occ. eigenvalues --   -0.38154  -0.37886  -0.37356  -0.36583  -0.36164
 Alpha  occ. eigenvalues --   -0.35442  -0.34745  -0.33873  -0.32393  -0.32172
 Alpha  occ. eigenvalues --   -0.30590  -0.29999  -0.29703  -0.29572  -0.28778
 Alpha  occ. eigenvalues --   -0.28132  -0.27295  -0.26923  -0.25843  -0.22411
 Alpha  occ. eigenvalues --   -0.20349
 Alpha virt. eigenvalues --   -0.12234  -0.10846  -0.06572  -0.04730  -0.02530
 Alpha virt. eigenvalues --   -0.02206  -0.01912  -0.01627  -0.00890  -0.00622
 Alpha virt. eigenvalues --   -0.00283   0.00125   0.00548   0.01155   0.01449

 Mulliken atomic charges:
              1
     1  C   -0.478945
     2  C    0.276061
     3  O   -0.184602
     4  C   -0.401114
     5  C    0.290481
     6  C   -0.900542
     7  N   -0.165489
     8  C    0.111119
     9  C   -0.447270
    10  C   -0.535256
    11  C    0.085986
    12  N   -0.086484
    13  C   -0.585953
    14  C   -0.157888
    15  C    0.455808
    16  C   -0.207806
    17  C   -0.934066
    18  C    0.392119
    19  C    0.402906
    20  O   -0.184954
    21  C    0.117994
    22  C   -0.065336
    23  C    0.196367
    24  N   -0.445037
    25  S    0.976095
    26  N   -0.404672
    27  C    0.233996
    28  C    0.459365
    29  N   -0.425728
    30  S    0.952362
    31  N   -0.479704
    32  C    0.506364
    33  H    0.138104
    34  H    0.154101
    35  H    0.185154
    36  H    0.219223
    37  H    0.220205
    38  H    0.157677
    39  H    0.115671
    40  H    0.095241
    41  H    0.164984
    42  H    0.183463
 Sum of Mulliken atomic charges =  -0.00000

 Dipole moment (field-independent basis, Debye):
    X=             -1.0934    Y=              0.9201    Z=              0.3824  Tot=              1.4793
 Quadrupole moment (field-independent basis, Debye-Ang):
   XX=           -158.4973   YY=           -186.4884   ZZ=           -198.6411
   XY=             -0.7022   XZ=              1.5265   YZ=              1.9307

  Exact polarizability: 776.002  46.787 378.775   4.796   9.001 182.444
 Approx polarizability:1101.277  87.837 762.897   7.748  18.464 310.220

                     1                      2                      3
                     A                      A                      A
 Frequencies --    15.4052                18.9271                31.1509
 Red. masses --     8.8135                 7.7205                 6.8200
 Frc consts  --     0.0012                 0.0016                 0.0039
 IR Inten    --     0.1349                 0.1261                 0.8740

                     4                      5                      6
                     A                      A                      A
 Frequencies --    42.7686                52.4590                60.6574
 Red. masses --     7.8122                 5.4322                 6.3331
 Frc consts  --     0.0084                 0.0088                 0.0137
 IR Inten    --     0.1428                 0.2180                 0.1834

                     7                      8                      9
                     A                      A                      A
 Frequencies --    88.4852                99.0736               120.4968
 Red. masses --     8.6599                 7.8913                 8.7137
 Frc consts  --     0.0399                 0.0456                 0.0745
 IR Inten    --     0.2052                 0.9353                 0.5986

                    10                     11                     12
                     A                      A                      A
 Frequencies --   155.5134               158.4457               179.8719
 Red. masses --     7.6114                 6.8441                 9.8769
 Frc consts  --     0.1085                 0.1012                 0.1883
 IR Inten    --     0.5955                 0.5343                 0.1089

                    13                     14                     15
                     A                      A                      A
 Frequencies --   186.6004               189.9129               195.6711
 Red. masses --    10.2585                 7.0775                 7.2373
 Frc consts  --     0.2105                 0.1504                 0.1633
 IR Inten    --     0.3094                 0.6623                 1.3623

                    16                     17                     18
                     A                      A                      A
 Frequencies --   227.5180               233.8091               239.1253
 Red. masses --     7.5685                 6.3250                 9.4055
 Frc consts  --     0.2308                 0.2037                 0.3169
 IR Inten    --     3.3230                 3.9157                 2.1594

                    19                     20                     21
                     A                      A                      A
 Frequencies --   276.2966               294.1756               330.0356
 Red. masses --     4.4475                 8.3300                 7.5130
 Frc consts  --     0.2000                 0.4247                 0.4822
 IR Inten    --     1.7742                 1.3932                 1.3684

                    22                     23                     24
                     A                      A                      A
 Frequencies --   347.1819               408.6673               422.7526
 Red. masses --     7.1522                 5.7713                 8.5653
 Frc consts  --     0.5079                 0.5679                 0.9019
 IR Inten    --     2.1960                 2.4185                 0.9738

                    25                     26                     27
                     A                      A                      A
 Frequencies --   450.7579               477.0746               491.3708
 Red. masses --     5.4809                 9.6878                 7.2897
 Frc consts  --     0.6561                 1.2991                 1.0370
 IR Inten    --     6.5254                20.6723                13.8950

                    28                     29                     30
                     A                      A                      A
 Frequencies --   514.7487               517.2326               540.9972
 Red. masses --     7.8787                11.3003                 3.7874
 Frc consts  --     1.2300                 1.7812                 0.6531
 IR Inten    --     3.4035                 0.6881                 4.4385

                    31                     32                     33
                     A                      A                      A
 Frequencies --   552.8965               560.4269               564.4639
 Red. masses --     9.9013                 8.5868                 7.5688
 Frc consts  --     1.7833                 1.5890                 1.4209
 IR Inten    --    12.6036                 2.4308                12.2556

                    34                     35                     36
                     A                      A                      A
 Frequencies --   578.0730               587.1717               601.5021
 Red. masses --     5.1101                 7.3935                 2.9727
 Frc consts  --     1.0061                 1.5019                 0.6337
 IR Inten    --     5.3213                14.1360                 7.6864

                    37                     38                     39
                     A                      A                      A
 Frequencies --   604.9200               614.2903               618.9852
 Red. masses --     7.2365                 5.4898                 4.2126
 Frc consts  --     1.5602                 1.2206                 0.9510
 IR Inten    --     1.0082                12.3955                19.4084

                    40                     41                     42
                     A                      A                      A
 Frequencies --   633.9573               646.6849               670.4876
 Red. masses --     5.6377                 6.0460                 1.5499
 Frc consts  --     1.3350                 1.4897                 0.4105
 IR Inten    --     4.9047                 1.3945                 2.3662

                    43                     44                     45
                     A                      A                      A
 Frequencies --   683.1738               700.4144               718.2759
 Red. masses --     7.7712                 5.2148                 6.2857
 Frc consts  --     2.1370                 1.5073                 1.9107
 IR Inten    --     1.2459                 2.9735                 0.9094

                    46                     47                     48
                     A                      A                      A
 Frequencies --   727.8975               733.5381               763.2641
 Red. masses --     1.4506                10.8064                10.5777
 Frc consts  --     0.4528                 3.4259                 3.6307
 IR Inten    --     6.4066                19.5759                 2.0334

                    49                     50                     51
                     A                      A                      A
 Frequencies --   766.6219               768.9095               793.7913
 Red. masses --     1.2596                 2.1268                 7.7720
 Frc consts  --     0.4361                 0.7408                 2.8853
 IR Inten    --    61.6139                51.9901                12.3806

                    52                     53                     54
                     A                      A                      A
 Frequencies --   798.4788               819.4933               828.9095
 Red. masses --     4.3399                 3.6228                 7.6979
 Frc consts  --     1.6303                 1.4335                 3.1163
 IR Inten    --    14.6250                16.4357                 9.2492

                    55                     56                     57
                     A                      A                      A
 Frequencies --   840.9697               845.3613               845.6485
 Red. masses --    11.4367                 4.9307                 1.6369
 Frc consts  --     4.7655                 2.0761                 0.6897
 IR Inten    --    59.1667                34.9005                 9.0951

                    58                     59                     60
                     A                      A                      A
 Frequencies --   850.6791               859.7528               889.6687
 Red. masses --    13.0180                12.6725                 9.6802
 Frc consts  --     5.5504                 5.5190                 4.5143
 IR Inten    --    62.9171                 1.8847                 0.2799

                    61                     62                     63
                     A                      A                      A
 Frequencies --   899.5200               899.9868               900.6182
 Red. masses --     6.1830                 1.3479                 4.3917
 Frc consts  --     2.9476                 0.6432                 2.0988
 IR Inten    --    34.3883                 1.2287                17.6519

                    64                     65                     66
                     A                      A                      A
 Frequencies --   912.2698               924.4706               934.9237
 Red. masses --     6.3919                 2.9638                 1.9857
 Frc consts  --     3.1342                 1.4924                 1.0226
 IR Inten    --    10.3477                 8.0607                 5.4476

                    67                     68                     69
                     A                      A                      A
 Frequencies --   941.0711               952.3170               983.5691
 Red. masses --     1.4336                 1.5034                 4.4223
 Frc consts  --     0.7480                 0.8033                 2.5206
 IR Inten    --    10.8310                 5.4517                28.6128

                    70                     71                     72
                     A                      A                      A
 Frequencies --   985.5469              1039.3949              1050.8230
 Red. masses --     1.3243                 4.3449                 1.3617
 Frc consts  --     0.7579                 2.7656                 0.8859
 IR Inten    --     0.5341                20.2107                78.2445

                    73                     74                     75
                     A                      A                      A
 Frequencies --  1076.2026              1089.0076              1113.7630
 Red. masses --     2.8358                 2.6294                 2.3666
 Frc consts  --     1.9351                 1.8373                 1.7296
 IR Inten    --     6.4605                47.1168                26.6290

                    76                     77                     78
                     A                      A                      A
 Frequencies --  1124.3482              1181.0153              1186.3363
 Red. masses --     4.5825                 1.7979                 3.8108
 Frc consts  --     3.4131                 1.4775                 3.1600
 IR Inten    --    29.6742                 5.9680                 5.2376

                    79                     80                     81
                     A                      A                      A
 Frequencies --  1190.0696              1197.4584              1214.0775
 Red. masses --     2.9901                 3.4292                 3.9716
 Frc consts  --     2.4951                 2.8971                 3.4491
 IR Inten    --    40.4987                 1.2230                 2.1530

                    82                     83                     84
                     A                      A                      A
 Frequencies --  1223.1176              1251.5146              1260.0891
 Red. masses --     2.8031                 1.4162                 2.0952
 Frc consts  --     2.4707                 1.3069                 1.9601
 IR Inten    --     0.6902                 4.3479                 2.4375

                    85                     86                     87
                     A                      A                      A
 Frequencies --  1282.1451              1298.6888              1321.5419
 Red. masses --     3.5737                 1.9485                 3.3425
 Frc consts  --     3.4613                 1.9362                 3.4394
 IR Inten    --    16.6729                27.3815                34.5162

                    88                     89                     90
                     A                      A                      A
 Frequencies --  1338.0101              1347.9365              1359.1334
 Red. masses --     4.3101                 4.5993                 3.9674
 Frc consts  --     4.5463                 4.9235                 4.3180
 IR Inten    --     3.6039                18.7188                 5.7482

                    91                     92                     93
                     A                      A                      A
 Frequencies --  1361.3457              1374.3443              1377.7934
 Red. masses --     4.9062                 4.5690                 2.8176
 Frc consts  --     5.3572                 5.0847                 3.1513
 IR Inten    --    41.3421                22.9276                58.3818

                    94                     95                     96
                     A                      A                      A
 Frequencies --  1384.5321              1396.0057              1418.1955
 Red. masses --     3.0051                 5.6570                 8.7530
 Frc consts  --     3.3941                 6.4954                10.3724
 IR Inten    --     6.9126                13.5589                 4.1881

                    97                     98                     99
                     A                      A                      A
 Frequencies --  1439.2770              1449.5876              1486.5320
 Red. masses --     3.2343                 2.0864                 5.7739
 Frc consts  --     3.9474                 2.5830                 7.5174
 IR Inten    --    10.5477                12.6666               143.6201

                   100                    101                    102
                     A                      A                      A
 Frequencies --  1498.6452              1500.7474              1514.9423
 Red. masses --     5.7073                 7.7263                 6.0942
 Frc consts  --     7.5522                10.2527                 8.2406
 IR Inten    --   183.4741               135.7140               309.8597

                   103                    104                    105
                     A                      A                      A
 Frequencies --  1548.4211              1553.4138              1567.1092
 Red. masses --     4.9095                 6.1257                 4.7700
 Frc consts  --     6.9352                 8.7093                 6.9019
 IR Inten    --     1.6665               175.0576                36.1525

                   106                    107                    108
                     A                      A                      A
 Frequencies --  1578.7483              1586.5475              1591.3572
 Red. masses --     4.6175                 5.8327                 6.0215
 Frc consts  --     6.7808                 8.6503                 8.9844
 IR Inten    --    23.8677                 6.0554                23.7511

                   109                    110                    111
                     A                      A                      A
 Frequencies --  1615.3214              1669.3520              3187.4348
 Red. masses --     6.8464                 6.8426                 1.0864
 Frc consts  --    10.5252                11.2348                 6.5034
 IR Inten    --   110.7306                11.3491                 2.7170

                   112                    113                    114
                     A                      A                      A
 Frequencies --  3204.1081              3220.7732              3230.2341
 Red. masses --     1.0950                 1.0922                 1.0909
 Frc consts  --     6.6232                 6.6753                 6.7066
 IR Inten    --    29.6080                 3.7121                13.2777

                   115                    116                    117
                     A                      A                      A
 Frequencies --  3231.0659              3265.6104              3293.0515
 Red. masses --     1.0909                 1.0914                 1.0994
 Frc consts  --     6.7100                 6.8575                 7.0242
 IR Inten    --    11.0898                 6.3506                 0.4048

                   118                    119                    120
                     A                      A                      A
 Frequencies --  3298.0257              3298.7420              3332.1464
 Red. masses --     1.0971                 1.1026                 1.0976
 Frc consts  --     7.0306                 7.0693                 7.1804
 IR Inten    --     0.3174                 1.2273                 0.1820

 - Thermochemistry -
 -------------------
 Temperature   298.150 Kelvin.  Pressure   1.00000 Atm.
 Atom     1 has atomic number  6 and mass  12.00000

 Molecular mass:   454.03067 amu.
 Principal axes and moments of inertia in atomic units:
                           1         2         3
     Eigenvalues --  5689.16872********************
           X            0.99998   0.00662   0.00030
           Y           -0.00662   0.99996   0.00623
           Z           -0.00026  -0.00624   0.99998
 This molecule is an asymmetric top.
 Rotational symmetry number  1.
 Warning -- assumption of classical behavior for rotation
           may cause significant error
 Rotational temperatures (Kelvin)      0.01522     0.00253     0.00224
 Rotational constants (GHZ):           0.31722     0.05272     0.04661
 Zero-point vibrational energy     746399.6 (Joules/Mol)
                                  178.39378 (Kcal/Mol)
 Warning -- explicit consideration of  39 degrees of freedom as
           vibrations may cause significant error
 Vibrational temperatures:     22.16    27.23    44.82    61.53    75.48
          (Kelvin)             87.27   127.31   142.54   173.37   223.75
                              227.97   258.80   268.48   273.24   281.53
                              327.35   336.40   344.05   397.53   423.25
                              474.85   499.52   587.98   608.25   648.54
                              686.40   706.97   740.61   744.18   778.37
                              795.49   806.33   812.14   831.72   844.81
                              865.43   870.34   883.83   890.58   912.12
                              930.43   964.68   982.93  1007.74  1033.44
                             1047.28  1055.40  1098.17  1103.00  1106.29
                             1142.09  1148.83  1179.07  1192.61  1209.97
                             1216.28  1216.70  1223.94  1236.99  1280.03
                             1294.21  1294.88  1295.79  1312.55  1330.11
                             1345.14  1353.99  1370.17  1415.13  1417.98
                             1495.46  1511.90  1548.41  1566.84  1602.45
                             1617.68  1699.22  1706.87  1712.24  1722.87
                             1746.78  1759.79  1800.65  1812.98  1844.72
                             1868.52  1901.40  1925.10  1939.38  1955.49
                             1958.67  1977.37  1982.33  1992.03  2008.54
                             2040.46  2070.80  2085.63  2138.79  2156.21
                             2159.24  2179.66  2227.83  2235.01  2254.72
                             2271.46  2282.69  2289.61  2324.08  2401.82
                             4586.00  4609.99  4633.97  4647.58  4648.78
                             4698.48  4737.96  4745.12  4746.15  4794.21

 Zero-point correction=                           0.284289 (Hartree/Particle)
 Thermal correction to Energy=                    0.307514
 Thermal correction to Enthalpy=                  0.308458
 Thermal correction to Gibbs Free Energy=         0.228459
 Sum of electronic and zero-point Energies=          -2119.379365
 Sum of electronic and thermal Energies=             -2119.356139
 Sum of electronic and thermal Enthalpies=           -2119.355195
 Sum of electronic and thermal Free Energies=        -2119.435195

                     E (Thermal)             CV                S
                      KCal/Mol        Cal/Mol-Kelvin    Cal/Mol-Kelvin
 Total                  192.968             91.998            168.373
 Electronic               0.000              0.000              0.000
 Translational            0.889              2.981             44.228
 Rotational               0.889              2.981             37.265
 Vibrational            191.191             86.037             86.881
 Vibration     1          0.593              1.986              7.153
 Vibration     2          0.593              1.986              6.744
 Vibration     3          0.594              1.983              5.755
 Vibration     4          0.595              1.980              5.127
 Vibration     5          0.596              1.977              4.722
 Vibration     6          0.597              1.973              4.436
 Vibration     7          0.601              1.957              3.693
 Vibration     8          0.604              1.950              3.472
 Vibration     9          0.609              1.932              3.092
 Vibration    10          0.620              1.897              2.604
 Vibration    11          0.621              1.893              2.568
 Vibration    12          0.629              1.867              2.330
 Vibration    13          0.632              1.858              2.261
 Vibration    14          0.633              1.854              2.229
 Vibration    15          0.636              1.846              2.173
 Vibration    16          0.651              1.799              1.898
 Vibration    17          0.654              1.789              1.850
 Vibration    18          0.657              1.781              1.809
 Vibration    19          0.678              1.717              1.556
 Vibration    20          0.689              1.685              1.450
 Vibration    21          0.713              1.616              1.260
 Vibration    22          0.725              1.581              1.179
 Vibration    23          0.773              1.451              0.931
 Vibration    24          0.785              1.421              0.883
 Vibration    25          0.810              1.359              0.793
 Vibration    26          0.834              1.301              0.718
 Vibration    27          0.847              1.269              0.680
 Vibration    28          0.870              1.217              0.622
 Vibration    29          0.872              1.212              0.616
 Vibration    30          0.896              1.159              0.563
 Vibration    31          0.908              1.133              0.538
 Vibration    32          0.916              1.117              0.523
 Vibration    33          0.920              1.108              0.515
 Vibration    34          0.935              1.079              0.489
 Vibration    35          0.944              1.059              0.472
 Vibration    36          0.960              1.029              0.447
 Vibration    37          0.963              1.021              0.441
 Vibration    38          0.974              1.002              0.426
 Vibration    39          0.979              0.992              0.418

 Optimization completed.
    -- Stationary point found.
 Normal termination of Gaussian 09 at Sun Dec 29 16:38:56 2013.
