 Gaussian 09, Revision C.01,
 Gaussian 09:  EM64L-G09RevC.01 23-Sep-2011

 --------------------------------------------
 #B3LYP/6-31++G(d,p) opt scf=direct freq test
 --------------------------------------------

 Geom opt of No.73 candidate from the CEPDB database with SMILE code of
  C1C=c2c3c4ncccc4[Se]c3c3ncc(cc3c2=C1)-c1nccc2nsnc12, HPC, 20131227, S
 huo Dai, Gaussian09
 ----------------------------------------------------------------------
 Charge =  0 Multiplicity = 1

 SCF Done:  E(RB3LYP) =  -3915.00745558     A.U. after   34 cycles
 SCF Done:  E(RB3LYP) =  -3915.33217020     A.U. after   55 cycles
 SCF Done:  E(RB3LYP) =  -3915.62603251     A.U. after   32 cycles
 SCF Done:  E(RB3LYP) =  -3915.71052264     A.U. after   36 cycles
 SCF Done:  E(RB3LYP) =  -3915.88304655     A.U. after   30 cycles
 SCF Done:  E(RB3LYP) =  -3915.98366297     A.U. after   40 cycles
 SCF Done:  E(RB3LYP) =  -3916.04286514     A.U. after   28 cycles
 SCF Done:  E(RB3LYP) =  -3916.06863506     A.U. after   26 cycles
 SCF Done:  E(RB3LYP) =  -3916.09586998     A.U. after   27 cycles
 SCF Done:  E(RB3LYP) =  -3916.10779202     A.U. after   28 cycles
 SCF Done:  E(RB3LYP) =  -3916.12007719     A.U. after   24 cycles
 SCF Done:  E(RB3LYP) =  -3916.12024975     A.U. after   23 cycles
 SCF Done:  E(RB3LYP) =  -3916.12028620     A.U. after   17 cycles
 SCF Done:  E(RB3LYP) =  -3916.12029724     A.U. after   14 cycles
 SCF Done:  E(RB3LYP) =  -3916.12030411     A.U. after   14 cycles
 SCF Done:  E(RB3LYP) =  -3916.12030417     A.U. after   14 cycles
 SCF Done:  E(RB3LYP) =  -3916.12030382     A.U. after   14 cycles
 SCF Done:  E(RB3LYP) =  -3916.12030299     A.U. after   14 cycles
 SCF Done:  E(RB3LYP) =  -3916.12030252     A.U. after   14 cycles
 Optimization completed.
    -- Stationary point found.
 Normal termination of Gaussian 09 at Mon Dec 30 00:22:59 2013.

 ----------------------------------------------------------------------
 #N Geom=AllCheck Guess=TCheck SCRF=Check Test GenChk RB3LYP/6-31++G(d,
 p) Freq
 ----------------------------------------------------------------------

 Geom opt of No.73 candidate from the CEPDB database with SMILE code of
  C1C=c2c3c4ncccc4[Se]c3c3ncc(cc3c2=C1)-c1nccc2nsnc12, HPC, 20131227, S
 huo Dai, Gaussian09
 ----------------------------------------------------------------------
 Charge =  0 Multiplicity = 1

                         Standard orientation:
 ---------------------------------------------------------------------
 Center     Atomic      Atomic             Coordinates (Angstroms)
 Number     Number       Type             X           Y           Z
 ---------------------------------------------------------------------
      1          6           0       -3.331691    3.397978   -0.728275
      2          6           0       -2.200598    3.012555    0.169455
      3          6           0       -1.791869    1.718068    0.459940
      4          6           0       -2.551950    0.485315    0.223537
      5          6           0       -3.986641    0.246253    0.220526
      6          7           0       -4.922041    1.193904    0.445012
      7          6           0       -6.202922    0.824531    0.453623
      8          6           0       -6.635578   -0.493804    0.238625
      9          6           0       -5.686814   -1.484537    0.004866
     10          6           0       -4.342263   -1.113648    0.001136
     11         34           0       -2.833826   -2.229087   -0.238252
     12          6           0       -1.817809   -0.668821    0.032700
     13          6           0       -0.384956   -0.688777    0.032490
     14          7           0        0.236533   -1.863548   -0.215004
     15          6           0        1.562866   -1.867447   -0.218178
     16          6           0        2.373844   -0.727865    0.035042
     17          6           0        1.715236    0.470016    0.321059
     18          6           0        0.305882    0.525052    0.321139
     19          6           0       -0.387099    1.740664    0.692494
     20          6           0       -3.746773    4.782349   -0.751413
     21          6           0        3.845708   -0.888291    0.019657
     22          7           0        4.320095   -2.122406    0.014872
     23          6           0        5.663651   -2.370653    0.006582
     24          6           0        6.643108   -1.408821    0.004748
     25          6           0        6.199532   -0.061009   -0.000670
     26          7           0        6.965181    1.039915   -0.021401
     27         16           0        5.935222    2.318024   -0.039068
     28          7           0        4.497698    1.529455   -0.020922
     29          6           0        4.777895    0.219599    0.004429
     30          1           0       -4.272166    3.049192   -0.176710
     31          1           0       -3.387291    2.774579   -1.637735
     32          1           0       -1.594670    3.815697    0.576758
     33          1           0       -6.927494    1.614196    0.639424
     34          1           0       -7.695039   -0.726852    0.257908
     35          1           0       -5.987787   -2.513948   -0.164056
     36          1           0        2.046144   -2.814733   -0.434054
     37          1           0        2.256857    1.379284    0.548721
     38          1           0       -4.487143    4.867594   -1.573547
     39          1           0        5.929604   -3.424105    0.005603
     40          1           0        7.698709   -1.653786    0.004356
 ---------------------------------------------------------------------

 SCF Done:  E(RB3LYP) =  -3916.12030252     A.U. after    3 cycles

 The electronic state is 1-A.
 Alpha  occ. eigenvalues -- -453.91683 -89.00181 -57.51452 -52.18797 -52.18695
 Alpha  occ. eigenvalues --  -52.18383 -14.40068 -14.39565 -14.36712 -14.36264
 Alpha  occ. eigenvalues --  -14.35792 -10.27614 -10.27084 -10.27035 -10.25998
 Alpha  occ. eigenvalues --  -10.25917 -10.25173 -10.25133 -10.25115 -10.24984
 Alpha  occ. eigenvalues --  -10.24559 -10.24052 -10.23972 -10.22994 -10.22911
 Alpha  occ. eigenvalues --  -10.22735 -10.22689 -10.22624 -10.22439 -10.21853
 Alpha  occ. eigenvalues --  -10.21800 -10.21621 -10.19140  -8.05485  -7.75584
 Alpha  occ. eigenvalues --   -6.02035  -6.01449  -6.01259  -5.79771  -5.79410
 Alpha  occ. eigenvalues --   -5.78714  -2.15418  -2.15357  -2.14750  -2.14466
 Alpha  occ. eigenvalues --   -2.14374  -1.04649  -0.97743  -0.97468  -0.96652
 Alpha  occ. eigenvalues --   -0.91818  -0.88886  -0.85283  -0.83786  -0.82758
 Alpha  occ. eigenvalues --   -0.82455  -0.81644  -0.78472  -0.78037  -0.75188
 Alpha  occ. eigenvalues --   -0.73055  -0.70024  -0.68705  -0.67382  -0.65313
 Alpha  occ. eigenvalues --   -0.63999  -0.63330  -0.62961  -0.60978  -0.59295
 Alpha  occ. eigenvalues --   -0.56797  -0.55547  -0.54564  -0.53443  -0.53069
 Alpha  occ. eigenvalues --   -0.51171  -0.50736  -0.49472  -0.48803  -0.48026
 Alpha  occ. eigenvalues --   -0.47745  -0.46830  -0.45898  -0.45146  -0.44748
 Alpha  occ. eigenvalues --   -0.43755  -0.43426  -0.43236  -0.42781  -0.41637
 Alpha  occ. eigenvalues --   -0.41043  -0.40634  -0.40413  -0.39480  -0.38257
 Alpha  occ. eigenvalues --   -0.37390  -0.36506  -0.35915  -0.35585  -0.34890
 Alpha  occ. eigenvalues --   -0.34070  -0.32731  -0.32320  -0.31204  -0.30379
 Alpha  occ. eigenvalues --   -0.29960  -0.28942  -0.28370  -0.27744  -0.27227
 Alpha  occ. eigenvalues --   -0.24607  -0.23918  -0.22330  -0.19958
 Alpha virt. eigenvalues --   -0.12479  -0.11331  -0.08703  -0.07593  -0.05132
 Alpha virt. eigenvalues --   -0.04143  -0.03418  -0.02807  -0.02483  -0.01956
 Alpha virt. eigenvalues --   -0.01060  -0.00774  -0.00112   0.00056   0.00384

 Mulliken atomic charges:
              1
     1  C    0.131471
     2  C   -0.242601
     3  C    0.007626
     4  C   -0.474439
     5  C   -0.315220
     6  N   -0.099922
     7  C    0.000073
     8  C   -0.043197
     9  C   -0.345417
    10  C    0.367958
    11  Se   0.156235
    12  C   -0.517032
    13  C   -0.918888
    14  N   -0.025095
    15  C    0.477611
    16  C    0.344255
    17  C    0.797856
    18  C    0.340080
    19  C   -0.594040
    20  C   -0.776541
    21  C   -0.793763
    22  N   -0.116661
    23  C    0.117162
    24  C   -0.177771
    25  C   -0.162301
    26  N   -0.385406
    27  S    0.906220
    28  N   -0.470570
    29  C    0.722130
    30  H    0.288267
    31  H    0.156928
    32  H    0.249071
    33  H    0.145496
    34  H    0.134372
    35  H    0.146568
    36  H    0.240839
    37  H    0.234688
    38  H    0.152793
    39  H    0.161554
    40  H    0.179611
 Sum of Mulliken atomic charges =  -0.00000

 Dipole moment (field-independent basis, Debye):
    X=             -1.5565    Y=             -3.7736    Z=             -1.9926  Tot=              4.5424
 Quadrupole moment (field-independent basis, Debye-Ang):
   XX=           -139.6734   YY=           -202.4836   ZZ=           -188.2672
   XY=              8.3218   XZ=              4.2265   YZ=             -6.4634

  Exact polarizability: 657.472 -40.194 412.648   0.950   5.792 171.680
 Approx polarizability: 950.257 -81.404 787.810  -4.033  30.331 291.405

                     1                      2                      3
                     A                      A                      A
 Frequencies --    11.4178                25.3633                38.0156
 Red. masses --     9.8162                 6.8231                 6.6604
 Frc consts  --     0.0008                 0.0026                 0.0057
 IR Inten    --     0.3940                 1.1421                 1.1387

                     4                      5                      6
                     A                      A                      A
 Frequencies --    57.3405                67.3452                87.4480
 Red. masses --     8.2207                 7.5079                 5.3555
 Frc consts  --     0.0159                 0.0201                 0.0241
 IR Inten    --     1.2882                 0.2460                 3.9624

                     7                      8                      9
                     A                      A                      A
 Frequencies --   101.8917               109.9468               124.4677
 Red. masses --     5.3188                12.9365                 5.9163
 Frc consts  --     0.0325                 0.0921                 0.0540
 IR Inten    --     2.1242                 0.2745                 2.1553

                    10                     11                     12
                     A                      A                      A
 Frequencies --   150.1129               182.6226               193.2572
 Red. masses --     5.0366                 4.5359                 5.4924
 Frc consts  --     0.0669                 0.0891                 0.1209
 IR Inten    --     4.0346                10.2250                 5.1962

                    13                     14                     15
                     A                      A                      A
 Frequencies --   200.1173               210.9247               235.8655
 Red. masses --     7.8558                 5.2140                 6.4294
 Frc consts  --     0.1854                 0.1367                 0.2107
 IR Inten    --     1.2696                 5.1624                 4.5405

                    16                     17                     18
                     A                      A                      A
 Frequencies --   256.2116               278.3378               293.8083
 Red. masses --     6.4142                 5.6134                 6.7358
 Frc consts  --     0.2481                 0.2562                 0.3426
 IR Inten    --     2.6870                 4.6502                 2.6480

                    19                     20                     21
                     A                      A                      A
 Frequencies --   309.7745               325.1990               349.1455
 Red. masses --     7.0307                 4.8447                 4.7645
 Frc consts  --     0.3975                 0.3019                 0.3422
 IR Inten    --     3.9469                 7.5411                11.6904

                    22                     23                     24
                     A                      A                      A
 Frequencies --   363.0050               383.3573               408.1593
 Red. masses --     5.8144                 3.9178                 3.4649
 Frc consts  --     0.4514                 0.3392                 0.3401
 IR Inten    --    11.4843                10.3892                 1.3293

                    25                     26                     27
                     A                      A                      A
 Frequencies --   428.1972               439.0422               458.5846
 Red. masses --     6.4568                 3.3973                 3.8989
 Frc consts  --     0.6975                 0.3858                 0.4831
 IR Inten    --     9.6649                20.8031                 0.8850

                    28                     29                     30
                     A                      A                      A
 Frequencies --   468.1462               478.2774               501.7586
 Red. masses --     6.1726                 4.6537                 6.0753
 Frc consts  --     0.7970                 0.6272                 0.9012
 IR Inten    --     1.0994                 1.2373                 0.6173

                    31                     32                     33
                     A                      A                      A
 Frequencies --   528.0410               543.0085               555.5423
 Red. masses --     5.2856                 5.0911                 6.5682
 Frc consts  --     0.8683                 0.8845                 1.1944
 IR Inten    --     9.4541                16.0844                10.8069

                    34                     35                     36
                     A                      A                      A
 Frequencies --   565.6985               579.2976               584.1063
 Red. masses --     5.2238                 4.2183                 4.3959
 Frc consts  --     0.9849                 0.8340                 0.8837
 IR Inten    --    17.3378                 4.7234                12.2587

                    37                     38                     39
                     A                      A                      A
 Frequencies --   595.0423               608.6676               628.9925
 Red. masses --     3.9742                 7.0219                 4.4647
 Frc consts  --     0.8291                 1.5327                 1.0407
 IR Inten    --    11.3428                21.1293                36.9214

                    40                     41                     42
                     A                      A                      A
 Frequencies --   652.7876               670.2361               680.0920
 Red. masses --     7.2960                 1.8254                 7.2880
 Frc consts  --     1.8318                 0.4831                 1.9861
 IR Inten    --    14.4758                54.4154                16.5174

                    43                     44                     45
                     A                      A                      A
 Frequencies --   685.5494               719.3548               735.5732
 Red. masses --     5.8868                 4.9014                 7.5528
 Frc consts  --     1.6301                 1.4944                 2.4078
 IR Inten    --     8.2372                 2.7635                 8.7136

                    46                     47                     48
                     A                      A                      A
 Frequencies --   754.8779               806.6051               812.6095
 Red. masses --    10.1717                 1.6776                 2.9195
 Frc consts  --     3.4150                 0.6431                 1.1359
 IR Inten    --     6.3126                39.5756                 1.5057

                    49                     50                     51
                     A                      A                      A
 Frequencies --   816.3089               819.6355               833.0761
 Red. masses --     1.3972                 3.7582                10.0335
 Frc consts  --     0.5485                 1.4875                 4.1027
 IR Inten    --    20.0732                 3.2992                12.0147

                    52                     53                     54
                     A                      A                      A
 Frequencies --   836.8763               837.7156               857.0875
 Red. masses --     4.7525                 2.3388                 6.5819
 Frc consts  --     1.9611                 0.9670                 2.8488
 IR Inten    --    49.6380                41.8629                 4.4815

                    55                     56                     57
                     A                      A                      A
 Frequencies --   870.1590               875.5626               901.3789
 Red. masses --     6.9308                 8.3038                 8.5363
 Frc consts  --     3.0920                 3.7506                 4.0864
 IR Inten    --    15.0643                 4.9222                16.0991

                    58                     59                     60
                     A                      A                      A
 Frequencies --   943.0389               966.5706               976.1662
 Red. masses --     6.7114                 1.3865                 1.6300
 Frc consts  --     3.5166                 0.7632                 0.9152
 IR Inten    --    12.8084                 0.2080                11.4640

                    61                     62                     63
                     A                      A                      A
 Frequencies --   987.9483               989.1262              1001.5341
 Red. masses --     2.0311                 1.3919                 1.5276
 Frc consts  --     1.1680                 0.8024                 0.9028
 IR Inten    --    28.9799                 2.2693                 5.1530

                    64                     65                     66
                     A                      A                      A
 Frequencies --  1006.7792              1008.4371              1018.8413
 Red. masses --     1.3902                 2.8334                 2.4032
 Frc consts  --     0.8302                 1.6977                 1.4698
 IR Inten    --     0.4138                11.9645                18.7852

                    67                     68                     69
                     A                      A                      A
 Frequencies --  1043.5476              1063.9937              1082.7128
 Red. masses --     4.5421                 3.5497                 2.0092
 Frc consts  --     2.9143                 2.3677                 1.3877
 IR Inten    --    20.4867                 1.2028                10.6275

                    70                     71                     72
                     A                      A                      A
 Frequencies --  1092.1682              1131.4483              1149.6748
 Red. masses --     2.4919                 1.9890                 1.6483
 Frc consts  --     1.7513                 1.5002                 1.2836
 IR Inten    --    12.8822                39.4355                22.2382

                    73                     74                     75
                     A                      A                      A
 Frequencies --  1161.2787              1174.9888              1208.1101
 Red. masses --     1.3788                 3.1643                 3.5123
 Frc consts  --     1.0955                 2.5740                 3.0203
 IR Inten    --    10.7302                27.0028                15.6801

                    76                     77                     78
                     A                      A                      A
 Frequencies --  1240.3598              1249.5598              1263.0442
 Red. masses --     2.3826                 2.3702                 1.1629
 Frc consts  --     2.1597                 2.1804                 1.0931
 IR Inten    --    11.8586                 0.1165                57.4149

                    79                     80                     81
                     A                      A                      A
 Frequencies --  1267.1380              1278.5670              1300.6228
 Red. masses --     1.7279                 2.1020                 3.1875
 Frc consts  --     1.6347                 2.0246                 3.1769
 IR Inten    --     3.0828                20.7889                42.7541

                    82                     83                     84
                     A                      A                      A
 Frequencies --  1319.6810              1326.6487              1340.4394
 Red. masses --     6.9674                 2.6132                 3.4575
 Frc consts  --     7.1492                 2.7098                 3.6603
 IR Inten    --    32.7663               105.6129                49.3779

                    85                     86                     87
                     A                      A                      A
 Frequencies --  1349.8803              1359.4590              1381.0862
 Red. masses --     3.3084                 4.4808                 3.6402
 Frc consts  --     3.5519                 4.8791                 4.0908
 IR Inten    --    69.8882                36.0571                48.3384

                    88                     89                     90
                     A                      A                      A
 Frequencies --  1384.8980              1410.4844              1415.9620
 Red. masses --     3.2658                 2.6274                 3.2876
 Frc consts  --     3.6904                 3.0797                 3.8836
 IR Inten    --    26.7234                 2.4627                 0.7776

                    91                     92                     93
                     A                      A                      A
 Frequencies --  1433.4530              1444.0628              1466.1536
 Red. masses --     3.5092                 3.7073                 4.4053
 Frc consts  --     4.2484                 4.5549                 5.5793
 IR Inten    --    97.8735                20.6318                82.3389

                    94                     95                     96
                     A                      A                      A
 Frequencies --  1481.9860              1501.0208              1529.1169
 Red. masses --     2.5953                 6.0557                 6.4353
 Frc consts  --     3.3584                 8.0387                 8.8654
 IR Inten    --    73.9105               123.7046                 8.3682

                    97                     98                     99
                     A                      A                      A
 Frequencies --  1547.5357              1552.3301              1570.8543
 Red. masses --     4.7970                 7.0027                 6.8941
 Frc consts  --     6.7687                 9.9422                10.0231
 IR Inten    --    57.9860                34.8115                81.4051

                   100                    101                    102
                     A                      A                      A
 Frequencies --  1582.6001              1617.2778              1618.4404
 Red. masses --     6.7232                 5.5982                 6.9506
 Frc consts  --     9.9213                 8.6271                10.7267
 IR Inten    --     6.0127                25.3148                39.2016

                   103                    104                    105
                     A                      A                      A
 Frequencies --  1623.7724              2583.8363              2941.8608
 Red. masses --     6.2714                 1.0693                 1.0798
 Frc consts  --     9.7424                 4.2060                 5.5060
 IR Inten    --   121.0834               477.5369                93.4788

                   106                    107                    108
                     A                      A                      A
 Frequencies --  2979.6721              3174.9964              3189.5737
 Red. masses --     1.0845                 1.0895                 1.0899
 Frc consts  --     5.6731                 6.4711                 6.5330
 IR Inten    --    44.2105                20.2932                32.4671

                   109                    110                    111
                     A                      A                      A
 Frequencies --  3196.6601              3215.1089              3215.7787
 Red. masses --     1.0899                 1.0909                 1.0966
 Frc consts  --     6.5621                 6.6438                 6.6812
 IR Inten    --     3.0199                 0.9529                17.1778

                   112                    113                    114
                     A                      A                      A
 Frequencies --  3220.7634              3231.0921              3247.9077
 Red. masses --     1.0889                 1.0953                 1.0919
 Frc consts  --     6.6549                 6.7372                 6.7867
 IR Inten    --     4.1543                 4.3577                 2.7127

 - Thermochemistry -
 -------------------
 Temperature   298.150 Kelvin.  Pressure   1.00000 Atm.
 Atom     1 has atomic number  6 and mass  12.00000

 Molecular mass:   456.99004 amu.
 Principal axes and moments of inertia in atomic units:
                           1         2         3
     Eigenvalues --  6042.99266********************
           X            0.99971  -0.02389   0.00008
           Y            0.02389   0.99968  -0.00843
           Z            0.00012   0.00843   0.99996
 This molecule is an asymmetric top.
 Rotational symmetry number  1.
 Warning -- assumption of classical behavior for rotation
           may cause significant error
 Rotational temperatures (Kelvin)      0.01433     0.00305     0.00254
 Rotational constants (GHZ):           0.29865     0.06353     0.05286
 Zero-point vibrational energy     717466.7 (Joules/Mol)
                                  171.47867 (Kcal/Mol)
 Warning -- explicit consideration of  38 degrees of freedom as
           vibrations may cause significant error
 Vibrational temperatures:     16.43    36.49    54.70    82.50    96.89
          (Kelvin)            125.82   146.60   158.19   179.08   215.98
                              262.75   278.05   287.92   303.47   339.36
                              368.63   400.47   422.72   445.70   467.89
                              502.34   522.28   551.56   587.25   616.08
                              631.68   659.80   673.56   688.13   721.92
                              759.73   781.27   799.30   813.91   833.48
                              840.40   856.13   875.74   904.98   939.21
                              964.32   978.50   986.35  1034.99  1058.32
                             1086.10  1160.52  1169.16  1174.48  1179.27
                             1198.61  1204.08  1205.28  1233.16  1251.96
                             1259.74  1296.88  1356.82  1390.68  1404.48
                             1421.44  1423.13  1440.98  1448.53  1450.91
                             1465.88  1501.43  1530.85  1557.78  1571.38
                             1627.90  1654.12  1670.82  1690.54  1738.20
                             1784.60  1797.84  1817.24  1823.13  1839.57
                             1871.30  1898.72  1908.75  1928.59  1942.17
                             1955.96  1987.07  1992.56  2029.37  2037.25
                             2062.42  2077.68  2109.47  2132.24  2159.63
                             2200.06  2226.56  2233.45  2260.11  2277.01
                             2326.90  2328.57  2336.24  3717.56  4232.68
                             4287.08  4568.11  4589.08  4599.28  4625.82
                             4626.78  4633.95  4648.82  4673.01

 Zero-point correction=                           0.273269 (Hartree/Particle)
 Thermal correction to Energy=                    0.295579
 Thermal correction to Enthalpy=                  0.296524
 Thermal correction to Gibbs Free Energy=         0.219297
 Sum of electronic and zero-point Energies=          -3915.847034
 Sum of electronic and thermal Energies=             -3915.824723
 Sum of electronic and thermal Enthalpies=           -3915.823779
 Sum of electronic and thermal Free Energies=        -3915.901005

                     E (Thermal)             CV                S
                      KCal/Mol        Cal/Mol-Kelvin    Cal/Mol-Kelvin
 Total                  185.479             88.045            162.537
 Electronic               0.000              0.000              0.000
 Translational            0.889              2.981             44.247
 Rotational               0.889              2.981             37.014
 Vibrational            183.701             82.083             81.275
 Vibration     1          0.593              1.987              7.748
 Vibration     2          0.593              1.985              6.163
 Vibration     3          0.594              1.982              5.360
 Vibration     4          0.596              1.975              4.547
 Vibration     5          0.598              1.970              4.229
 Vibration     6          0.601              1.958              3.716
 Vibration     7          0.604              1.948              3.418
 Vibration     8          0.606              1.941              3.270
 Vibration     9          0.610              1.929              3.030
 Vibration    10          0.618              1.903              2.671
 Vibration    11          0.630              1.863              2.301
 Vibration    12          0.635              1.849              2.196
 Vibration    13          0.638              1.840              2.132
 Vibration    14          0.643              1.824              2.036
 Vibration    15          0.655              1.786              1.834
 Vibration    16          0.666              1.752              1.687
 Vibration    17          0.679              1.714              1.544
 Vibration    18          0.689              1.685              1.452
 Vibration    19          0.699              1.655              1.364
 Vibration    20          0.709              1.625              1.284
 Vibration    21          0.726              1.577              1.170
 Vibration    22          0.737              1.548              1.109
 Vibration    23          0.753              1.506              1.026
 Vibration    24          0.773              1.453              0.933
 Vibration    25          0.790              1.409              0.865
 Vibration    26          0.799              1.385              0.830
 Vibration    27          0.817              1.342              0.770
 Vibration    28          0.825              1.321              0.743
 Vibration    29          0.835              1.298              0.715
 Vibration    30          0.857              1.246              0.654
 Vibration    31          0.883              1.188              0.592
 Vibration    32          0.898              1.155              0.559
 Vibration    33          0.911              1.128              0.533
 Vibration    34          0.922              1.105              0.513
 Vibration    35          0.936              1.076              0.487
 Vibration    36          0.941              1.066              0.478
 Vibration    37          0.953              1.042              0.458
 Vibration    38          0.968              1.013              0.435

 Normal termination of Gaussian 09 at Mon Dec 30 02:12:21 2013.
