 Gaussian 09, Revision C.01,
 Gaussian 09:  EM64L-G09RevC.01 23-Sep-2011

 --------------------------------------------
 #B3LYP/6-31++G(d,p) opt scf=direct freq test
 --------------------------------------------

 Geom opt of No.20 candidate from the CEPDB database with SMILE code of
  C1ccc2csc(c12)-c1ccc(-c2ncc(-c3nccs3)c3nsnc23)c2cscc12, HPC, 20131227
 , Shuo Dai, Gaussian09
 ----------------------------------------------------------------------
 Charge =  0 Multiplicity = 1

 SCF Done:  E(RB3LYP) =  -2695.37894062     A.U. after   25 cycles
 SCF Done:  E(RB3LYP) =  -2695.40865021     A.U. after   17 cycles
 SCF Done:  E(RB3LYP) =  -2695.41332943     A.U. after   17 cycles
 SCF Done:  E(RB3LYP) =  -2695.42114475     A.U. after   18 cycles
 SCF Done:  E(RB3LYP) =  -2695.42153682     A.U. after   17 cycles
 SCF Done:  E(RB3LYP) =  -2695.42677450     A.U. after   17 cycles
 SCF Done:  E(RB3LYP) =  -2695.43076859     A.U. after   19 cycles
 SCF Done:  E(RB3LYP) =  -2695.43256612     A.U. after   14 cycles
 SCF Done:  E(RB3LYP) =  -2695.43342841     A.U. after   15 cycles
 SCF Done:  E(RB3LYP) =  -2695.43360999     A.U. after   14 cycles
 SCF Done:  E(RB3LYP) =  -2695.43370899     A.U. after   14 cycles
 SCF Done:  E(RB3LYP) =  -2695.43374130     A.U. after   13 cycles
 SCF Done:  E(RB3LYP) =  -2695.43375553     A.U. after   13 cycles
 SCF Done:  E(RB3LYP) =  -2695.43376190     A.U. after   13 cycles
 SCF Done:  E(RB3LYP) =  -2695.43376615     A.U. after   12 cycles
 SCF Done:  E(RB3LYP) =  -2695.43377025     A.U. after   13 cycles
 SCF Done:  E(RB3LYP) =  -2695.43377209     A.U. after   12 cycles
 SCF Done:  E(RB3LYP) =  -2695.43377275     A.U. after   11 cycles
 SCF Done:  E(RB3LYP) =  -2695.43377288     A.U. after   10 cycles
 Optimization completed.
    -- Stationary point found.

 1\1\GINC-N021\FOpt\RB3LYP\6-31++G(d,p)\C23H12N4S4\ROOT\29-Dec-2013\0\\
 #B3LYP/6-31++G(d,p) opt scf=direct freq test\\Geom opt of No.20 candid
 ate from the CEPDB database with SMILE code of C1ccc2csc(c12)-c1ccc(-c
 2ncc(-c3nccs3)c3nsnc23)c2cscc12, HPC, 20131227, Shuo Dai, Gaussian09\\
 0,1\C,-1.1706220408,1.107162739,-0.9657629698\C,-2.0313979994,-0.12144
 45363,-1.2103213796\C,-1.4977163981,-1.2313990313,-0.6554332344\C,-0.2
 400823586,-0.8795225015,0.0041557124\C,0.7756914966,-1.512800239,0.670
 8109699\S,2.0161180172,-0.3751904309,1.1110672872\C,1.1503183731,0.982

 Normal termination of Gaussian 09 at Sun Dec 29 03:05:31 2013.

 ----------------------------------------------------------------------
 #N Geom=AllCheck Guess=TCheck SCRF=Check Test GenChk RB3LYP/6-31++G(d,
 p) Freq
 ----------------------------------------------------------------------

 Geom opt of No.20 candidate from the CEPDB database with SMILE code of
  C1ccc2csc(c12)-c1ccc(-c2ncc(-c3nccs3)c3nsnc23)c2cscc12, HPC, 20131227
 , Shuo Dai, Gaussian09
 ----------------------------------------------------------------------
 Charge =  0 Multiplicity = 1

                         Standard orientation:
 ---------------------------------------------------------------------
 Center     Atomic      Atomic             Coordinates (Angstroms)
 Number     Number       Type             X           Y           Z
 ---------------------------------------------------------------------
      1          6           0       -5.513025    1.239307   -1.541450
      2          6           0       -6.996555    1.303965   -1.865761
      3          6           0       -7.694656    0.334229   -1.235696
      4          6           0       -6.774219   -0.477978   -0.439685
      5          6           0       -6.820833   -1.596531    0.350209
      6         16           0       -5.227738   -2.009258    0.914428
      7          6           0       -4.481952   -0.647825    0.070891
      8          6           0       -5.450995    0.063178   -0.591921
      9          6           0       -3.023735   -0.465909    0.118330
     10          6           0       -2.162044   -1.502427   -0.183737
     11          6           0       -0.754718   -1.340932   -0.184267
     12          6           0       -0.128569   -0.135919    0.103910
     13          6           0        1.335325   -0.011725    0.043241
     14          7           0        1.863456    1.205844   -0.025036
     15          6           0        3.198631    1.417856   -0.117462
     16          6           0        4.178006    0.436090   -0.146446
     17          6           0        5.589510    0.791035   -0.262991
     18          7           0        6.001752    2.036027   -0.365455
     19          6           0        7.362989    2.110634   -0.462668
     20          6           0        8.028638    0.913205   -0.436918
     21         16           0        6.903195   -0.390110   -0.281301
     22          6           0        3.682072   -0.899718   -0.040940
     23          7           0        4.419372   -2.015237   -0.004778
     24         16           0        3.370858   -3.269206    0.159939
     25          7           0        1.956946   -2.439976    0.186555
     26          6           0        2.253158   -1.141046    0.060326
     27          6           0       -0.987169    0.986149    0.450090
     28          6           0       -0.642017    2.272614    0.839515
     29         16           0       -2.020805    3.206477    1.260419
     30          6           0       -3.108018    1.930353    0.915517
     31          6           0       -2.435456    0.797825    0.479018
     32          1           0       -5.150675    2.176411   -1.100181
     33          1           0       -4.906013    1.074479   -2.442548
     34          1           0       -7.417052    2.051873   -2.529174
     35          1           0       -8.763694    0.170995   -1.309587
     36          1           0       -7.669917   -2.200675    0.639850
     37          1           0       -2.570842   -2.467973   -0.464871
     38          1           0       -0.152840   -2.200588   -0.443207
     39          1           0        3.504457    2.457334   -0.178291
     40          1           0        7.833822    3.082320   -0.553124
     41          1           0        9.092925    0.733826   -0.499089
     42          1           0        0.343715    2.703175    0.881901
     43          1           0       -4.168922    2.047202    1.076918
 ---------------------------------------------------------------------

 SCF Done:  E(RB3LYP) =  -2695.43377288     A.U. after    2 cycles

 The electronic state is 1-A.
 Alpha  occ. eigenvalues --  -88.99769 -88.93041 -88.92833 -88.91820 -14.39674
 Alpha  occ. eigenvalues --  -14.39195 -14.35268 -14.34801 -10.27096 -10.26841
 Alpha  occ. eigenvalues --  -10.26779 -10.26723 -10.24289 -10.23395 -10.23340
 Alpha  occ. eigenvalues --  -10.23071 -10.22918 -10.22827 -10.22407 -10.22222
 Alpha  occ. eigenvalues --  -10.22171 -10.21786 -10.21587 -10.21505 -10.20971
 Alpha  occ. eigenvalues --  -10.20686 -10.20614 -10.20563 -10.20502 -10.20480
 Alpha  occ. eigenvalues --  -10.20463  -8.05064  -7.98928  -7.98715  -7.97665
 Alpha  occ. eigenvalues --   -6.01627  -6.01041  -6.00816  -5.95307  -5.95113
 Alpha  occ. eigenvalues --   -5.94929  -5.94752  -5.94749  -5.94463  -5.94112
 Alpha  occ. eigenvalues --   -5.93717  -5.93369  -1.04319  -0.97572  -0.96215
 Alpha  occ. eigenvalues --   -0.91637  -0.90873  -0.89811  -0.85143  -0.83573
 Alpha  occ. eigenvalues --   -0.82955  -0.81099  -0.80582  -0.78433  -0.75220
 Alpha  occ. eigenvalues --   -0.74593  -0.73802  -0.72053  -0.71147  -0.69643
 Alpha  occ. eigenvalues --   -0.67763  -0.64905  -0.64402  -0.62282  -0.60117
 Alpha  occ. eigenvalues --   -0.59377  -0.59030  -0.57938  -0.56276  -0.55328
 Alpha  occ. eigenvalues --   -0.54190  -0.52998  -0.52973  -0.51831  -0.51251
 Alpha  occ. eigenvalues --   -0.49666  -0.47883  -0.47724  -0.46677  -0.45684
 Alpha  occ. eigenvalues --   -0.45196  -0.43894  -0.43060  -0.42806  -0.42661
 Alpha  occ. eigenvalues --   -0.42536  -0.42193  -0.42010  -0.41370  -0.40355
 Alpha  occ. eigenvalues --   -0.40118  -0.39572  -0.38624  -0.38219  -0.37946
 Alpha  occ. eigenvalues --   -0.37598  -0.36987  -0.36805  -0.36175  -0.35745
 Alpha  occ. eigenvalues --   -0.34308  -0.34178  -0.33166  -0.31883  -0.31228
 Alpha  occ. eigenvalues --   -0.30434  -0.29788  -0.29302  -0.29053  -0.27804
 Alpha  occ. eigenvalues --   -0.27082  -0.25911  -0.24665  -0.23723  -0.22449
 Alpha  occ. eigenvalues --   -0.20461
 Alpha virt. eigenvalues --   -0.12132  -0.07542  -0.05302  -0.03739  -0.02090
 Alpha virt. eigenvalues --   -0.01979  -0.01167  -0.00823  -0.00632  -0.00472
 Alpha virt. eigenvalues --   -0.00154   0.00071   0.00682   0.00740   0.00899

 Mulliken atomic charges:
              1
     1  C   -0.915783
     2  C    0.158582
     3  C   -0.252459
     4  C   -0.230695
     5  C    0.010579
     6  S    0.196335
     7  C    0.041330
     8  C   -0.011891
     9  C   -0.006491
    10  C   -0.496314
    11  C   -0.020834
    12  C    0.301634
    13  C   -0.817952
    14  N   -0.125594
    15  C    0.294705
    16  C   -0.287054
    17  C   -0.681254
    18  N   -0.060095
    19  C    0.080184
    20  C   -0.198126
    21  S    0.401028
    22  C    0.614080
    23  N   -0.437590
    24  S    0.973179
    25  N   -0.445241
    26  C   -0.097083
    27  C    0.297371
    28  C   -0.365438
    29  S    0.188410
    30  C   -0.430308
    31  C    0.323304
    32  H    0.169409
    33  H    0.184006
    34  H    0.137006
    35  H    0.106423
    36  H    0.168725
    37  H    0.110984
    38  H    0.163483
    39  H    0.234348
    40  H    0.152304
    41  H    0.196395
    42  H    0.207379
    43  H    0.169018
 Sum of Mulliken atomic charges =  -0.00000

 Dipole moment (field-independent basis, Debye):
    X=             -0.5012    Y=             -0.6340    Z=             -0.8185  Tot=              1.1503
 Quadrupole moment (field-independent basis, Debye-Ang):
   XX=           -171.1834   YY=           -198.5178   ZZ=           -208.9434
   XY=             -4.9904   XZ=              3.5747   YZ=             -0.6406

  Exact polarizability: 819.842   3.537 399.930  -9.179 -12.138 216.292
 Approx polarizability:1175.602   8.419 802.456 -27.244 -28.541 371.666

                     1                      2                      3
                     A                      A                      A
 Frequencies --    13.1810                17.5910                33.6081
 Red. masses --    10.1989                 7.4561                 9.5655
 Frc consts  --     0.0010                 0.0014                 0.0064
 IR Inten    --     0.0489                 0.4491                 0.7977

                     4                      5                      6
                     A                      A                      A
 Frequencies --    42.0314                43.8739                55.4494
 Red. masses --     7.9294                 7.4467                 6.0386
 Frc consts  --     0.0083                 0.0084                 0.0109
 IR Inten    --     0.5610                 0.1247                 0.0772

                     7                      8                      9
                     A                      A                      A
 Frequencies --    79.8385                96.6435               116.9155
 Red. masses --     7.1267                 6.3861                 8.7197
 Frc consts  --     0.0268                 0.0351                 0.0702
 IR Inten    --     0.4177                 1.0067                 0.5551

                    10                     11                     12
                     A                      A                      A
 Frequencies --   144.1589               145.3383               178.3426
 Red. masses --     7.8290                 8.0782                 5.1540
 Frc consts  --     0.0959                 0.1005                 0.0966
 IR Inten    --     0.5546                 0.1079                 1.9326

                    13                     14                     15
                     A                      A                      A
 Frequencies --   181.3615               191.4653               193.5996
 Red. masses --     5.1983                 5.9828                 9.2647
 Frc consts  --     0.1007                 0.1292                 0.2046
 IR Inten    --     3.6625                 1.9652                 1.0380

                    16                     17                     18
                     A                      A                      A
 Frequencies --   202.0840               217.4453               234.7479
 Red. masses --     6.2415                 8.8749                 8.2081
 Frc consts  --     0.1502                 0.2472                 0.2665
 IR Inten    --     1.8853                 0.8349                 1.4635

                    19                     20                     21
                     A                      A                      A
 Frequencies --   279.9919               293.7916               301.0954
 Red. masses --     5.4562                 8.6879                 5.9624
 Frc consts  --     0.2520                 0.4418                 0.3185
 IR Inten    --     0.9812                 8.5011                 0.7348

                    22                     23                     24
                     A                      A                      A
 Frequencies --   332.1072               392.9884               407.7110
 Red. masses --     5.5406                 6.1557                 7.0398
 Frc consts  --     0.3601                 0.5601                 0.6895
 IR Inten    --     2.7458                 4.9948                 1.5852

                    25                     26                     27
                     A                      A                      A
 Frequencies --   415.9590               438.7814               452.1214
 Red. masses --     2.6508                 5.5358                 5.7987
 Frc consts  --     0.2702                 0.6280                 0.6984
 IR Inten    --     6.2666                 0.8586                 8.8475

                    28                     29                     30
                     A                      A                      A
 Frequencies --   466.7076               480.9392               490.5284
 Red. masses --     6.6868                 7.0222                 5.8635
 Frc consts  --     0.8581                 0.9570                 0.8313
 IR Inten    --     6.8377                 3.6750                 0.1345

                    31                     32                     33
                     A                      A                      A
 Frequencies --   513.2120               524.7641               526.5567
 Red. masses --     9.6380                 9.6505                 7.7830
 Frc consts  --     1.4957                 1.5658                 1.2714
 IR Inten    --     5.0333                16.8692                21.1506

                    34                     35                     36
                     A                      A                      A
 Frequencies --   554.0065               570.8727               580.7839
 Red. masses --     5.9999                 5.9244                 5.8531
 Frc consts  --     1.0850                 1.1376                 1.1632
 IR Inten    --     0.2788                 2.1342                 1.8956

                    37                     38                     39
                     A                      A                      A
 Frequencies --   591.7481               594.7187               613.8843
 Red. masses --     5.4991                 7.6147                10.3800
 Frc consts  --     1.1345                 1.5868                 2.3047
 IR Inten    --     1.7424                 8.8149                 0.3058

                    40                     41                     42
                     A                      A                      A
 Frequencies --   630.6518               649.4457               668.0414
 Red. masses --     5.1551                 5.1175                 2.9138
 Frc consts  --     1.2080                 1.2717                 0.7662
 IR Inten    --     8.3357                14.1786                 2.7257

                    43                     44                     45
                     A                      A                      A
 Frequencies --   673.2547               684.3534               697.0661
 Red. masses --     1.7210                 2.0684                 7.1591
 Frc consts  --     0.4596                 0.5707                 2.0495
 IR Inten    --     4.1529                19.0898                 3.6805

                    46                     47                     48
                     A                      A                      A
 Frequencies --   700.7370               711.3164               712.9810
 Red. masses --     4.8132                 1.3804                 5.6880
 Frc consts  --     1.3925                 0.4115                 1.7036
 IR Inten    --     7.8827                21.8935                 8.5163

                    49                     50                     51
                     A                      A                      A
 Frequencies --   728.8910               748.3401               763.7400
 Red. masses --     1.3287                 8.5985                 8.6534
 Frc consts  --     0.4159                 2.8371                 2.9739
 IR Inten    --    37.4597                 6.6163                 6.1310

                    52                     53                     54
                     A                      A                      A
 Frequencies --   767.3682               786.0677               793.7584
 Red. masses --     1.8498                 4.5610                 2.8448
 Frc consts  --     0.6418                 1.6605                 1.0560
 IR Inten    --    42.7912                 1.7463                 4.8154

                    55                     56                     57
                     A                      A                      A
 Frequencies --   805.0772               814.8882               828.8853
 Red. masses --     2.8117                 3.2408                 6.8656
 Frc consts  --     1.0737                 1.2679                 2.7792
 IR Inten    --    37.6884                31.0424                39.2866

                    58                     59                     60
                     A                      A                      A
 Frequencies --   838.8613               850.6510               857.9667
 Red. masses --     4.5618                 9.7663                 6.5550
 Frc consts  --     1.8913                 4.1637                 2.8429
 IR Inten    --    23.8511                12.0288                63.0870

                    61                     62                     63
                     A                      A                      A
 Frequencies --   866.1857               882.2437               891.3592
 Red. masses --     1.8843                 4.9613                 4.1802
 Frc consts  --     0.8329                 2.2752                 1.9568
 IR Inten    --    29.6846                65.9136                23.3062

                    64                     65                     66
                     A                      A                      A
 Frequencies --   895.4589               904.1722               910.1707
 Red. masses --     5.4320                 1.3201                 4.1149
 Frc consts  --     2.5663                 0.6359                 2.0084
 IR Inten    --    10.9066                 3.1930                 5.2056

                    67                     68                     69
                     A                      A                      A
 Frequencies --   912.2801               930.3784               944.9519
 Red. masses --     5.1780                 9.0105                 2.0684
 Frc consts  --     2.5391                 4.5954                 1.0882
 IR Inten    --     7.0725                14.1487                11.2789

                    70                     71                     72
                     A                      A                      A
 Frequencies --   947.0139               962.3649               968.1342
 Red. masses --     1.6846                 1.5346                 1.4347
 Frc consts  --     0.8902                 0.8374                 0.7923
 IR Inten    --     8.2741                 0.1069                 6.9605

                    73                     74                     75
                     A                      A                      A
 Frequencies --   972.1282              1036.2494              1060.5642
 Red. masses --     1.4342                 5.5304                 3.3922
 Frc consts  --     0.7986                 3.4989                 2.2481
 IR Inten    --     2.2289                 7.6162                 2.0768

                    76                     77                     78
                     A                      A                      A
 Frequencies --  1088.7949              1101.9170              1120.5875
 Red. masses --     1.4783                 1.8113                 2.9874
 Frc consts  --     1.0326                 1.2958                 2.2102
 IR Inten    --    14.4675                 4.2971               101.6506

                    79                     80                     81
                     A                      A                      A
 Frequencies --  1137.0126              1151.3363              1157.2925
 Red. masses --     1.5411                 1.1466                 2.1949
 Frc consts  --     1.1738                 0.8955                 1.7320
 IR Inten    --     1.0260                 0.6527                21.1164

                    82                     83                     84
                     A                      A                      A
 Frequencies --  1172.4103              1191.6384              1207.2384
 Red. masses --     1.4453                 1.6604                 1.6443
 Frc consts  --     1.1705                 1.3892                 1.4120
 IR Inten    --    12.0215                18.6905                 9.0501

                    85                     86                     87
                     A                      A                      A
 Frequencies --  1219.1899              1260.6028              1278.9951
 Red. masses --     2.4534                 2.2032                 2.7172
 Frc consts  --     2.1487                 2.0628                 2.6189
 IR Inten    --    28.5630                15.1885                28.4625

                    88                     89                     90
                     A                      A                      A
 Frequencies --  1308.2395              1333.8664              1343.4239
 Red. masses --     2.7875                 3.7151                 2.6065
 Frc consts  --     2.8109                 3.8945                 2.7716
 IR Inten    --    20.0801                30.1800                30.4774

                    91                     92                     93
                     A                      A                      A
 Frequencies --  1349.8564              1353.8334              1356.4853
 Red. masses --     2.6619                 1.9463                 2.5361
 Frc consts  --     2.8577                 2.1018                 2.7495
 IR Inten    --     4.1787                 8.9642                21.9004

                    94                     95                     96
                     A                      A                      A
 Frequencies --  1362.2932              1375.7663              1388.2642
 Red. masses --     3.6252                 4.3452                 3.7453
 Frc consts  --     3.9639                 4.8457                 4.2529
 IR Inten    --    44.4235                36.8090               138.4600

                    97                     98                     99
                     A                      A                      A
 Frequencies --  1392.3292              1406.1145              1425.1069
 Red. masses --     5.7510                 8.9103                 8.2873
 Frc consts  --     6.5687                10.3797                 9.9165
 IR Inten    --    22.9067                10.8716                77.5823

                   100                    101                    102
                     A                      A                      A
 Frequencies --  1454.8123              1459.3453              1488.0138
 Red. masses --     1.1076                 6.9260                 7.7731
 Frc consts  --     1.3812                 8.6906                10.1405
 IR Inten    --    13.2887                 2.0529               598.7790

                   103                    104                    105
                     A                      A                      A
 Frequencies --  1526.6227              1540.3704              1549.2556
 Red. masses --     5.7091                 4.7969                 8.2510
 Frc consts  --     7.8393                 6.7059                11.6681
 IR Inten    --    35.1158                19.4255                15.6985

                   106                    107                    108
                     A                      A                      A
 Frequencies --  1558.5562              1573.6839              1579.9900
 Red. masses --     4.8180                 5.6718                 8.8780
 Frc consts  --     6.8954                 8.2757                13.0579
 IR Inten    --    83.3033                98.6374                37.8491

                   109                    110                    111
                     A                      A                      A
 Frequencies --  1601.1696              1622.2755              1642.8038
 Red. masses --     6.7620                 5.8998                 8.0480
 Frc consts  --    10.2141                 9.1482                12.7971
 IR Inten    --     6.0441                 3.2092                24.3821

                   112                    113                    114
                     A                      A                      A
 Frequencies --  3034.5449              3063.5107              3198.4985
 Red. masses --     1.0633                 1.0979                 1.0905
 Frc consts  --     5.7689                 6.0709                 6.5731
 IR Inten    --    10.6377                 7.0711                15.9960

                   115                    116                    117
                     A                      A                      A
 Frequencies --  3210.8667              3211.7191              3229.4506
 Red. masses --     1.0911                 1.0871                 1.0910
 Frc consts  --     6.6274                 6.6070                 6.7039
 IR Inten    --    10.1220                 1.6481                18.2722

                   118                    119                    120
                     A                      A                      A
 Frequencies --  3233.7729              3253.4271              3256.5927
 Red. masses --     1.1027                 1.0908                 1.0941
 Frc consts  --     6.7941                 6.8027                 6.8364
 IR Inten    --    29.7457                 0.9485                 0.4517

                   121                    122                    123
                     A                      A                      A
 Frequencies --  3271.2790              3281.3644              3318.2244
 Red. masses --     1.0981                 1.0932                 1.0932
 Frc consts  --     6.9233                 6.9349                 7.0916
 IR Inten    --     0.8422                 1.8044                 6.9402

 - Thermochemistry -
 -------------------
 Temperature   298.150 Kelvin.  Pressure   1.00000 Atm.
 Atom     1 has atomic number  6 and mass  12.00000

 Molecular mass:   471.99448 amu.
 Principal axes and moments of inertia in atomic units:
                           1         2         3
     Eigenvalues --  6017.16849********************
           X            0.99999   0.00243   0.00300
           Y           -0.00241   0.99998  -0.00620
           Z           -0.00301   0.00619   0.99998
 This molecule is an asymmetric top.
 Rotational symmetry number  1.
 Warning -- assumption of classical behavior for rotation
           may cause significant error
 Rotational temperatures (Kelvin)      0.01439     0.00230     0.00206
 Rotational constants (GHZ):           0.29993     0.04792     0.04293
 Zero-point vibrational energy     774281.1 (Joules/Mol)
                                  185.05762 (Kcal/Mol)
 Warning -- explicit consideration of  39 degrees of freedom as
           vibrations may cause significant error
 Vibrational temperatures:     18.96    25.31    48.35    60.47    63.12
          (Kelvin)             79.78   114.87   139.05   168.22   207.41
                              209.11   256.59   260.94   275.48   278.55
                              290.75   312.85   337.75   402.85   422.70
                              433.21   477.83   565.42   586.60   598.47
                              631.31   650.50   671.49   691.96   705.76
                              738.40   755.02   757.60   797.09   821.36
                              835.62   851.39   855.67   883.24   907.37
                              934.41   961.16   968.66   984.63  1002.92
                             1008.20  1023.42  1025.82  1048.71  1076.69
                             1098.85  1104.07  1130.97  1142.04  1158.33
                             1172.44  1192.58  1206.93  1223.90  1234.42
                             1246.25  1269.35  1282.47  1288.36  1300.90
                             1309.53  1312.57  1338.61  1359.57  1362.54
                             1384.63  1392.93  1398.67  1490.93  1525.91
                             1566.53  1585.41  1612.27  1635.91  1656.51
                             1665.08  1686.83  1714.50  1736.94  1754.14
                             1813.72  1840.19  1882.26  1919.13  1932.88
                             1942.14  1947.86  1951.68  1960.03  1979.42
                             1997.40  2003.25  2023.08  2050.41  2093.15
                             2099.67  2140.92  2196.47  2216.25  2229.03
                             2242.41  2264.18  2273.25  2303.72  2334.09
                             2363.63  4366.03  4407.70  4601.92  4619.72
                             4620.94  4646.45  4652.67  4680.95  4685.50
                             4706.63  4721.15  4774.18

 Zero-point correction=                           0.294908 (Hartree/Particle)
 Thermal correction to Energy=                    0.319025
 Thermal correction to Enthalpy=                  0.319970
 Thermal correction to Gibbs Free Energy=         0.237820
 Sum of electronic and zero-point Energies=          -2695.138865
 Sum of electronic and thermal Energies=             -2695.114747
 Sum of electronic and thermal Enthalpies=           -2695.113803
 Sum of electronic and thermal Free Energies=        -2695.195952

                     E (Thermal)             CV                S
                      KCal/Mol        Cal/Mol-Kelvin    Cal/Mol-Kelvin
 Total                  200.192             95.441            172.898
 Electronic               0.000              0.000              0.000
 Translational            0.889              2.981             44.344
 Rotational               0.889              2.981             37.497
 Vibrational            198.414             89.480             91.057
 Vibration     1          0.593              1.987              7.462
 Vibration     2          0.593              1.986              6.889
 Vibration     3          0.594              1.983              5.604
 Vibration     4          0.595              1.980              5.161
 Vibration     5          0.595              1.980              5.076
 Vibration     6          0.596              1.975              4.613
 Vibration     7          0.600              1.963              3.895
 Vibration     8          0.603              1.952              3.521
 Vibration     9          0.608              1.935              3.151
 Vibration    10          0.616              1.909              2.748
 Vibration    11          0.617              1.908              2.732
 Vibration    12          0.629              1.869              2.346
 Vibration    13          0.630              1.865              2.314
 Vibration    14          0.634              1.852              2.214
 Vibration    15          0.635              1.849              2.193
 Vibration    16          0.639              1.837              2.114
 Vibration    17          0.646              1.814              1.980
 Vibration    18          0.655              1.788              1.842
 Vibration    19          0.680              1.711              1.534
 Vibration    20          0.689              1.685              1.452
 Vibration    21          0.693              1.672              1.411
 Vibration    22          0.714              1.611              1.250
 Vibration    23          0.760              1.485              0.989
 Vibration    24          0.772              1.453              0.935
 Vibration    25          0.779              1.436              0.906
 Vibration    26          0.799              1.386              0.830
 Vibration    27          0.811              1.356              0.789
 Vibration    28          0.824              1.324              0.747
 Vibration    29          0.837              1.292              0.708
 Vibration    30          0.846              1.271              0.682
 Vibration    31          0.868              1.221              0.626
 Vibration    32          0.880              1.195              0.599
 Vibration    33          0.882              1.191              0.595
 Vibration    34          0.909              1.131              0.536
 Vibration    35          0.927              1.094              0.503
 Vibration    36          0.937              1.073              0.484
 Vibration    37          0.949              1.049              0.464
 Vibration    38          0.952              1.043              0.459
 Vibration    39          0.973              1.002              0.426

 Optimization completed.
    -- Stationary point found.

 1\1\GINC-N021\Freq\RB3LYP\6-31++G(d,p)\C23H12N4S4\ROOT\29-Dec-2013\0\\
 #N Geom=AllCheck Guess=TCheck SCRF=Check Test GenChk RB3LYP/6-31++G(d,
 p) Freq\\Geom opt of No.20 candidate from the CEPDB database with SMIL
 E code of C1ccc2csc(c12)-c1ccc(-c2ncc(-c3nccs3)c3nsnc23)c2cscc12, HPC,
  20131227, Shuo Dai, Gaussian09\\0,1\C,-1.1706220408,1.107162739,-0.96
 57629698\C,-2.0313979994,-0.1214445363,-1.2103213796\C,-1.4977163981,-
 1.2313990313,-0.6554332344\C,-0.2400823586,-0.8795225015,0.0041557124\
 C,0.7756914966,-1.512800239,0.6708109699\S,2.0161180172,-0.3751904309,

 Normal termination of Gaussian 09 at Sun Dec 29 05:28:11 2013.
