 Gaussian 09, Revision C.01,
 Gaussian 09:  EM64L-G09RevC.01 23-Sep-2011

 --------------------------------------------
 #B3LYP/6-31++G(d,p) opt scf=direct freq test
 --------------------------------------------

 Geom opt of No.5 candidate from the CEPDB database with SMILE code of
 c1cc2csc(-c3cnc(-c4ccc(-c5ccccc5)c5nsnc45)c4nsnc34)c2s1, HPC, 20131227
 , Shuo Dai, Gaussian09
 ----------------------------------------------------------------------
 Charge =  0 Multiplicity = 1

 SCF Done:  E(RB3LYP) =  -2749.55795299     A.U. after   26 cycles
 SCF Done:  E(RB3LYP) =  -2749.58337430     A.U. after   15 cycles
 SCF Done:  E(RB3LYP) =  -2749.58761934     A.U. after   49 cycles
 SCF Done:  E(RB3LYP) =  -2749.58904828     A.U. after   22 cycles
 SCF Done:  E(RB3LYP) =  -2749.59002899     A.U. after   17 cycles
 SCF Done:  E(RB3LYP) =  -2749.59045916     A.U. after   17 cycles
 SCF Done:  E(RB3LYP) =  -2749.59053952     A.U. after   13 cycles
 SCF Done:  E(RB3LYP) =  -2749.59057449     A.U. after   13 cycles
 SCF Done:  E(RB3LYP) =  -2749.59058174     A.U. after   13 cycles
 SCF Done:  E(RB3LYP) =  -2749.59058789     A.U. after   12 cycles
 SCF Done:  E(RB3LYP) =  -2749.59253178     A.U. after   18 cycles
 SCF Done:  E(RB3LYP) =  -2749.38375098     A.U. after   29 cycles
 SCF Done:  E(RB3LYP) =  -2749.59259654     A.U. after   30 cycles
 SCF Done:  E(RB3LYP) =  -2749.59277656     A.U. after   17 cycles
 SCF Done:  E(RB3LYP) =  -2749.59280663     A.U. after   19 cycles
 SCF Done:  E(RB3LYP) =  -2749.59281480     A.U. after   14 cycles
 SCF Done:  E(RB3LYP) =  -2749.59281655     A.U. after   19 cycles
 SCF Done:  E(RB3LYP) =  -2749.59281668     A.U. after   11 cycles
 SCF Done:  E(RB3LYP) =  -2749.59281671     A.U. after   10 cycles
 Optimization completed.
    -- Stationary point found.

 1\1\GINC-N018\FOpt\RB3LYP\6-31++G(d,p)\C23H11N5S4\SHUO\29-Dec-2013\0\\
 #B3LYP/6-31++G(d,p) opt scf=direct freq test\\Geom opt of No.5 candida
 te from the CEPDB database with SMILE code of c1cc2csc(-c3cnc(-c4ccc(-
 c5ccccc5)c5nsnc45)c4nsnc34)c2s1, HPC, 20131227, Shuo Dai, Gaussian09\\
 0,1\C,-2.1762961968,-0.0428081927,-1.2707876407\C,-1.6280871914,1.1017
 311795,-0.7946602887\C,-0.301711512,0.8896531078,-0.265208314\C,0.6636
 124398,1.6855205079,0.3137190409\S,2.0717409265,0.7841410398,0.7255755
 071\C,1.3991893615,-0.7345157714,0.1257140547\C,2.1289591158,-1.988889

 Normal termination of Gaussian 09 at Sun Dec 29 23:30:45 2013.

 ----------------------------------------------------------------------
 #N Geom=AllCheck Guess=TCheck SCRF=Check Test GenChk RB3LYP/6-31++G(d,
 p) Freq
 ----------------------------------------------------------------------

 Geom opt of No.5 candidate from the CEPDB database with SMILE code of
 c1cc2csc(-c3cnc(-c4ccc(-c5ccccc5)c5nsnc45)c4nsnc34)c2s1, HPC, 20131227
 , Shuo Dai, Gaussian09
 ----------------------------------------------------------------------
 Charge =  0 Multiplicity = 1

                         Standard orientation:
 ---------------------------------------------------------------------
 Center     Atomic      Atomic             Coordinates (Angstroms)
 Number     Number       Type             X           Y           Z
 ---------------------------------------------------------------------
      1          6           0        6.536183   -2.887668    0.854226
      2          6           0        7.312555   -1.815104    0.564305
      3          6           0        6.527332   -0.642671    0.258697
      4          6           0        6.804892    0.663138   -0.085155
      5         16           0        5.367198    1.583460   -0.310947
      6          6           0        4.312316    0.214506    0.051911
      7          6           0        2.863745    0.317671    0.029687
      8          6           0        2.027134   -0.776852    0.244015
      9          7           0        0.670845   -0.768519    0.249564
     10          6           0       -0.018416    0.338223    0.039680
     11          6           0       -1.491490    0.276901    0.073362
     12          6           0       -2.257192    1.294373    0.612234
     13          6           0       -3.673021    1.229375    0.712224
     14          6           0       -4.420904    0.152505    0.272036
     15          6           0       -5.894863    0.119829    0.423296
     16          6           0       -6.492604    0.647477    1.583716
     17          6           0       -7.879300    0.663952    1.733337
     18          6           0       -8.700110    0.152318    0.724592
     19          6           0       -8.119766   -0.380643   -0.429588
     20          6           0       -6.732837   -0.403337   -0.578904
     21          6           0       -3.670819   -0.917054   -0.332983
     22          7           0       -4.191313   -2.035765   -0.855480
     23         16           0       -2.932955   -2.915190   -1.435629
     24          7           0       -1.687081   -1.925974   -1.043377
     25          6           0       -2.216119   -0.861105   -0.429575
     26          6           0        0.704286    1.562527   -0.207771
     27          7           0        0.187035    2.770434   -0.465534
     28         16           0        1.452031    3.790043   -0.688283
     29          7           0        2.696112    2.739803   -0.469032
     30          6           0        2.154007    1.544240   -0.213721
     31          6           0        5.113353   -0.888350    0.332942
     32         16           0        4.802329   -2.561335    0.778109
     33          1           0        6.859884   -3.886529    1.116720
     34          1           0        8.395788   -1.840089    0.563794
     35          1           0        7.770387    1.133828   -0.213226
     36          1           0        2.452204   -1.756681    0.428554
     37          1           0       -1.763524    2.183312    0.985951
     38          1           0       -4.186581    2.081939    1.145247
     39          1           0       -5.864221    1.023208    2.385699
     40          1           0       -8.317201    1.067063    2.642018
     41          1           0       -9.780044    0.163172    0.839733
     42          1           0       -8.748640   -0.781981   -1.219142
     43          1           0       -6.295065   -0.824256   -1.475700
 ---------------------------------------------------------------------

 SCF Done:  E(RB3LYP) =  -2749.59281671     A.U. after    6 cycles

 The electronic state is 1-A.
 Alpha  occ. eigenvalues --  -88.99703 -88.97900 -88.93068 -88.92414 -14.39531
 Alpha  occ. eigenvalues --  -14.39193 -14.37612 -14.37468 -14.35174 -10.26733
 Alpha  occ. eigenvalues --  -10.26459 -10.26062 -10.25267 -10.25220 -10.24821
 Alpha  occ. eigenvalues --  -10.24060 -10.24050 -10.23992 -10.23668 -10.23314
 Alpha  occ. eigenvalues --  -10.22743 -10.22596 -10.22011 -10.21607 -10.21504
 Alpha  occ. eigenvalues --  -10.21383 -10.21334 -10.20209 -10.20126 -10.20068
 Alpha  occ. eigenvalues --  -10.19929 -10.19812  -8.04994  -8.03221  -7.98842
 Alpha  occ. eigenvalues --   -7.98292  -6.01555  -6.00971  -6.00750  -5.99781
 Alpha  occ. eigenvalues --   -5.99194  -5.98978  -5.95282  -5.94876  -5.94761
 Alpha  occ. eigenvalues --   -5.94571  -5.94388  -5.93915  -1.04236  -1.02425
 Alpha  occ. eigenvalues --   -0.96200  -0.92224  -0.91219  -0.89878  -0.87840
 Alpha  occ. eigenvalues --   -0.85807  -0.85657  -0.82603  -0.80679  -0.78664
 Alpha  occ. eigenvalues --   -0.76914  -0.76339  -0.75297  -0.73918  -0.73365
 Alpha  occ. eigenvalues --   -0.71028  -0.68214  -0.65769  -0.64869  -0.63614
 Alpha  occ. eigenvalues --   -0.62707  -0.61680  -0.60585  -0.60246  -0.58305
 Alpha  occ. eigenvalues --   -0.57021  -0.54786  -0.53786  -0.53103  -0.52154
 Alpha  occ. eigenvalues --   -0.51125  -0.50826  -0.50008  -0.48726  -0.47557
 Alpha  occ. eigenvalues --   -0.47121  -0.46069  -0.45793  -0.45104  -0.44910
 Alpha  occ. eigenvalues --   -0.44313  -0.42954  -0.42684  -0.42520  -0.41880
 Alpha  occ. eigenvalues --   -0.41003  -0.40440  -0.40045  -0.39727  -0.38795
 Alpha  occ. eigenvalues --   -0.38574  -0.37943  -0.37076  -0.36782  -0.36501
 Alpha  occ. eigenvalues --   -0.35686  -0.35103  -0.34952  -0.34438  -0.34274
 Alpha  occ. eigenvalues --   -0.33650  -0.32648  -0.31751  -0.30970  -0.30419
 Alpha  occ. eigenvalues --   -0.29554  -0.27869  -0.27218  -0.26766  -0.26395
 Alpha  occ. eigenvalues --   -0.25977  -0.25153  -0.23342  -0.20677
 Alpha virt. eigenvalues --   -0.11765  -0.09371  -0.05746  -0.03862  -0.02342
 Alpha virt. eigenvalues --   -0.01910  -0.01900  -0.01761  -0.01112  -0.00816
 Alpha virt. eigenvalues --   -0.00635  -0.00421  -0.00235   0.00139   0.00653

 Mulliken atomic charges:
              1
     1  C   -0.109034
     2  C    0.041166
     3  C   -0.242205
     4  C   -0.132444
     5  S    0.184380
     6  C   -0.128660
     7  C    0.289231
     8  C   -0.052679
     9  N    0.038801
    10  C   -0.432226
    11  C   -0.814498
    12  C   -0.094734
    13  C   -0.591854
    14  C    0.273497
    15  C    1.034744
    16  C   -0.744568
    17  C    0.171742
    18  C   -0.574211
    19  C    0.509694
    20  C   -0.567468
    21  C   -0.189403
    22  N   -0.402677
    23  S    1.001463
    24  N   -0.321639
    25  C    0.315543
    26  C   -0.132227
    27  N   -0.421859
    28  S    1.012775
    29  N   -0.412739
    30  C    0.370337
    31  C   -0.291606
    32  S   -0.116879
    33  H    0.203332
    34  H    0.119251
    35  H    0.178622
    36  H    0.134684
    37  H    0.152246
    38  H    0.117828
    39  H    0.137302
    40  H    0.129257
    41  H    0.099649
    42  H    0.137472
    43  H    0.120594
 Sum of Mulliken atomic charges =  -0.00000

 Dipole moment (field-independent basis, Debye):
    X=              1.8097    Y=              1.4816    Z=              0.6396  Tot=              2.4247
 Quadrupole moment (field-independent basis, Debye-Ang):
   XX=           -173.2326   YY=           -201.5983   ZZ=           -209.9181
   XY=             -8.6749   XZ=             -0.9998   YZ=              2.5998

  Exact polarizability: 799.833 -19.029 398.191  -6.741   8.710 231.811
 Approx polarizability:1147.739  -4.033 777.455 -20.261  24.762 411.927

 ******    1 imaginary frequencies (negative Signs) ******

                     1                      2                      3
                     A                      A                      A
 Frequencies --    -3.2770                16.0560                25.7275
 Red. masses --    11.3772                 8.5756                 7.7319
 Frc consts  --     0.0001                 0.0013                 0.0030
 IR Inten    --     0.0584                 0.2997                 0.0647

                     4                      5                      6
                     A                      A                      A
 Frequencies --    29.6576                49.8872                63.2524
 Red. masses --     8.0161                 4.6719                 6.3163
 Frc consts  --     0.0042                 0.0069                 0.0149
 IR Inten    --     0.4015                 0.0445                 0.2867

                     7                      8                      9
                     A                      A                      A
 Frequencies --    77.6087                96.9994               108.5092
 Red. masses --     7.2164                 7.5274                 8.4933
 Frc consts  --     0.0256                 0.0417                 0.0589
 IR Inten    --     0.1397                 0.2727                 0.6150

                    10                     11                     12
                     A                      A                      A
 Frequencies --   143.7855               147.3926               169.0598
 Red. masses --     8.8447                 9.1912                12.9669
 Frc consts  --     0.1077                 0.1176                 0.2184
 IR Inten    --     0.0093                 0.2224                 0.0995

                    13                     14                     15
                     A                      A                      A
 Frequencies --   172.5296               191.9784               200.6809
 Red. masses --    11.2105                 6.1142                 8.7110
 Frc consts  --     0.1966                 0.1328                 0.2067
 IR Inten    --     0.2033                 1.1494                 0.5991

                    16                     17                     18
                     A                      A                      A
 Frequencies --   205.2165               212.0111               235.0202
 Red. masses --    11.2564                 7.2384                 7.4231
 Frc consts  --     0.2793                 0.1917                 0.2416
 IR Inten    --     1.1083                 2.4223                 0.7451

                    19                     20                     21
                     A                      A                      A
 Frequencies --   261.3740               283.5797               301.9611
 Red. masses --     6.2351                 6.6933                 8.4007
 Frc consts  --     0.2510                 0.3171                 0.4513
 IR Inten    --     1.1228                 0.0654                 1.9871

                    22                     23                     24
                     A                      A                      A
 Frequencies --   352.3660               390.6050               399.9222
 Red. masses --     6.3838                10.7012                 5.6920
 Frc consts  --     0.4670                 0.9620                 0.5364
 IR Inten    --     0.2896                 7.5013                 2.7372

                    25                     26                     27
                     A                      A                      A
 Frequencies --   410.3822               416.6154               447.5409
 Red. masses --     8.2325                 3.0336                 5.2565
 Frc consts  --     0.8169                 0.3102                 0.6203
 IR Inten    --     0.4439                 1.6811                 1.0831

                    28                     29                     30
                     A                      A                      A
 Frequencies --   473.3206               481.9196               491.9695
 Red. masses --     5.1813                 9.6951                 8.2394
 Frc consts  --     0.6839                 1.3266                 1.1750
 IR Inten    --     5.0560                14.1777                 0.5752

                    31                     32                     33
                     A                      A                      A
 Frequencies --   496.8876               517.2398               522.7615
 Red. masses --     5.4508                 8.9663                11.1988
 Frc consts  --     0.7929                 1.4133                 1.8031
 IR Inten    --     6.9427                 5.2559                 1.5613

                    34                     35                     36
                     A                      A                      A
 Frequencies --   533.2422               553.2679               557.2055
 Red. masses --     6.9136                 6.2869                 9.9001
 Frc consts  --     1.1583                 1.1339                 1.8110
 IR Inten    --     2.5125                10.1739                 6.8796

                    37                     38                     39
                     A                      A                      A
 Frequencies --   562.6181               600.2911               604.3417
 Red. masses --     6.5405                 6.1110                 5.6033
 Frc consts  --     1.2198                 1.2974                 1.2058
 IR Inten    --     3.3231                 7.3357                 7.2520

                    40                     41                     42
                     A                      A                      A
 Frequencies --   612.2595               632.2967               634.0269
 Red. masses --     6.5711                 6.5306                 6.3941
 Frc consts  --     1.4513                 1.5383                 1.5144
 IR Inten    --    35.4560                 4.1486                 7.6098

                    43                     44                     45
                     A                      A                      A
 Frequencies --   662.4613               669.6176               671.6507
 Red. masses --     4.6485                 2.7503                 7.5913
 Frc consts  --     1.2020                 0.7266                 2.0177
 IR Inten    --    11.0684                14.4994                26.4439

                    46                     47                     48
                     A                      A                      A
 Frequencies --   687.7830               697.1709               706.2800
 Red. masses --     8.3713                 4.1707                 1.7820
 Frc consts  --     2.3332                 1.1944                 0.5237
 IR Inten    --     3.2775                 1.8806                35.3866

                    49                     50                     51
                     A                      A                      A
 Frequencies --   717.6284               740.9474               767.4054
 Red. masses --     1.4897                 9.4360                 3.6343
 Frc consts  --     0.4520                 3.0522                 1.2610
 IR Inten    --     3.3435                10.1547                19.9597

                    52                     53                     54
                     A                      A                      A
 Frequencies --   767.4705               772.9045               798.6621
 Red. masses --     2.0342                 3.1340                 6.2150
 Frc consts  --     0.7059                 1.1031                 2.3357
 IR Inten    --    53.9735                23.2623                10.8591

                    55                     56                     57
                     A                      A                      A
 Frequencies --   804.1922               811.7083               823.3538
 Red. masses --     6.2493                 8.5670                 7.5840
 Frc consts  --     2.3812                 3.3257                 3.0291
 IR Inten    --    19.5749                 1.8007                20.3934

                    58                     59                     60
                     A                      A                      A
 Frequencies --   835.4151               843.6972               854.7570
 Red. masses --    10.4113                10.6257                 4.6738
 Frc consts  --     4.2811                 4.4564                 2.0119
 IR Inten    --    63.2642                27.5351                27.9765

                    61                     62                     63
                     A                      A                      A
 Frequencies --   855.4972               864.6689               866.5668
 Red. masses --     1.4791                 5.5629                 3.7622
 Frc consts  --     0.6378                 2.4505                 1.6646
 IR Inten    --     2.6942                14.9259                32.4575

                    64                     65                     66
                     A                      A                      A
 Frequencies --   872.4490               895.3852               904.5091
 Red. masses --     1.8911                10.5663                 1.3041
 Frc consts  --     0.8481                 4.9911                 0.6286
 IR Inten    --    20.1330                 3.6182                 0.6540

                    67                     68                     69
                     A                      A                      A
 Frequencies --   910.6387               916.1227               933.9849
 Red. masses --     1.9234                 4.0783                 1.4587
 Frc consts  --     0.9398                 2.0167                 0.7497
 IR Inten    --     9.9329                 7.6677                 0.4099

                    70                     71                     72
                     A                      A                      A
 Frequencies --   956.1990               966.7548               984.8917
 Red. masses --     6.7654                 1.4335                 1.3686
 Frc consts  --     3.6445                 0.7894                 0.7822
 IR Inten    --     1.3171                 1.8540                 2.0548

                    73                     74                     75
                     A                      A                      A
 Frequencies --  1003.0129              1014.1532              1043.9031
 Red. masses --     1.2983                 5.7006                 3.9625
 Frc consts  --     0.7696                 3.4544                 2.5442
 IR Inten    --     0.2161                 1.4491                 9.3141

                    76                     77                     78
                     A                      A                      A
 Frequencies --  1053.5120              1076.2188              1106.6236
 Red. masses --     2.2780                 4.5670                 1.7080
 Frc consts  --     1.4896                 3.1166                 1.2324
 IR Inten    --     6.4630                 4.6189                 5.1268

                    79                     80                     81
                     A                      A                      A
 Frequencies --  1118.4540              1125.7535              1152.8118
 Red. masses --     1.2176                 2.0976                 5.8119
 Frc consts  --     0.8974                 1.5663                 4.5508
 IR Inten    --    17.0302                 2.0621                15.4777

                    82                     83                     84
                     A                      A                      A
 Frequencies --  1181.3287              1185.2979              1192.9953
 Red. masses --     1.4257                 1.0976                 4.1489
 Frc consts  --     1.1723                 0.9086                 3.4790
 IR Inten    --     1.3033                 0.1121                 2.7907

                    85                     86                     87
                     A                      A                      A
 Frequencies --  1211.4947              1257.1864              1303.4860
 Red. masses --     1.1509                 4.5659                 2.9213
 Frc consts  --     0.9953                 4.2518                 2.9244
 IR Inten    --     7.5679                 0.6163                 3.5357

                    88                     89                     90
                     A                      A                      A
 Frequencies --  1312.8181              1322.9691              1332.0771
 Red. masses --     2.4719                 1.6049                 3.8632
 Frc consts  --     2.5101                 1.6550                 4.0388
 IR Inten    --     0.8377                 4.5214                15.1859

                    91                     92                     93
                     A                      A                      A
 Frequencies --  1343.4197              1348.3987              1350.0750
 Red. masses --     3.1947                 8.3726                 6.1674
 Frc consts  --     3.3971                 8.9691                 6.6232
 IR Inten    --     2.3338                97.1094                35.4049

                    94                     95                     96
                     A                      A                      A
 Frequencies --  1359.6109              1362.1161              1363.3183
 Red. masses --     2.0389                 2.8395                 2.9759
 Frc consts  --     2.2207                 3.1040                 3.2589
 IR Inten    --    15.8828                12.3281                10.9339

                    97                     98                     99
                     A                      A                      A
 Frequencies --  1382.1515              1402.6983              1413.0960
 Red. masses --     5.2696                 5.1881                10.4164
 Frc consts  --     5.9311                 6.0143                12.2550
 IR Inten    --     1.0680                 2.8613                 1.2248

                   100                    101                    102
                     A                      A                      A
 Frequencies --  1480.9150              1481.9439              1514.4903
 Red. masses --     2.3741                 8.3516                 8.9250
 Frc consts  --     3.0676                10.8065                12.0612
 IR Inten    --     6.3215                51.7452               205.8927

                   103                    104                    105
                     A                      A                      A
 Frequencies --  1523.4972              1536.0286              1542.4187
 Red. masses --     3.1620                 3.4797                 4.5126
 Frc consts  --     4.3241                 4.8372                 6.3254
 IR Inten    --     5.5160                 0.7897                81.1145

                   106                    107                    108
                     A                      A                      A
 Frequencies --  1547.6281              1575.3528              1581.2957
 Red. masses --     6.2863                 5.9787                 6.0876
 Frc consts  --     8.8711                 8.7420                 8.9686
 IR Inten    --     0.5912                45.8196                89.5355

                   109                    110                    111
                     A                      A                      A
 Frequencies --  1597.3608              1614.9747              1631.2485
 Red. masses --     7.9345                 5.0301                 5.9633
 Frc consts  --    11.9282                 7.7297                 9.3493
 IR Inten    --    47.6850                 1.8242                 0.8942

                   112                    113                    114
                     A                      A                      A
 Frequencies --  1648.5311              3179.1855              3187.6554
 Red. masses --     5.5244                 1.0852                 1.0886
 Frc consts  --     8.8457                 6.4624                 6.5174
 IR Inten    --     1.5638                 3.2994                 7.3434

                   115                    116                    117
                     A                      A                      A
 Frequencies --  3196.2905              3200.0669              3206.6301
 Red. masses --     1.0919                 1.0905                 1.0970
 Frc consts  --     6.5723                 6.5793                 6.6458
 IR Inten    --    29.1681                 5.7004                37.7852

                   118                    119                    120
                     A                      A                      A
 Frequencies --  3214.2931              3226.5899              3229.4604
 Red. masses --     1.0889                 1.0895                 1.0917
 Frc consts  --     6.6287                 6.6830                 6.7086
 IR Inten    --    35.2548                 4.6170                 1.8287

                   121                    122                    123
                     A                      A                      A
 Frequencies --  3232.1776              3256.3244              3256.9937
 Red. masses --     1.0927                 1.0994                 1.0935
 Frc consts  --     6.7257                 6.8682                 6.8346
 IR Inten    --     3.1067                 2.6175                 4.1570

 - Thermochemistry -
 -------------------
 Temperature   298.150 Kelvin.  Pressure   1.00000 Atm.
 Atom     1 has atomic number  6 and mass  12.00000

 Molecular mass:   484.98973 amu.
 Principal axes and moments of inertia in atomic units:
                           1         2         3
     Eigenvalues --  6989.63731********************
           X            0.99998  -0.00611  -0.00187
           Y            0.00611   0.99997   0.00405
           Z            0.00185  -0.00406   0.99999
 This molecule is an asymmetric top.
 Rotational symmetry number  1.
 Warning -- assumption of classical behavior for rotation
           may cause significant error
 Rotational temperatures (Kelvin)      0.01239     0.00225     0.00199
 Rotational constants (GHZ):           0.25820     0.04691     0.04146
    1 imaginary frequencies ignored.
 Zero-point vibrational energy     760971.3 (Joules/Mol)
                                  181.87651 (Kcal/Mol)
 Warning -- explicit consideration of  39 degrees of freedom as
           vibrations may cause significant error
 Vibrational temperatures:     23.10    37.02    42.67    71.78    91.01
          (Kelvin)            111.66   139.56   156.12   206.88   212.06
                              243.24   248.23   276.21   288.73   295.26
                              305.04   338.14   376.06   408.01   434.45
                              506.98   561.99   575.40   590.45   599.42
                              643.91   681.00   693.37   707.83   714.91
                              744.19   752.14   767.22   796.03   801.69
                              809.48   863.68   869.51   880.90   909.73
                              912.22   953.13   963.43   966.35   989.57
                             1003.07  1016.18  1032.51  1066.06  1104.12
                             1104.22  1112.04  1149.10  1157.05  1167.87
                             1184.62  1201.97  1213.89  1229.80  1230.87
                             1244.06  1246.79  1255.26  1288.26  1301.39
                             1310.20  1318.09  1343.79  1375.76  1390.94
                             1417.04  1443.11  1459.14  1501.94  1515.77
                             1548.44  1592.18  1609.20  1619.71  1658.64
                             1699.67  1705.38  1716.45  1743.07  1808.81
                             1875.42  1888.85  1903.46  1916.56  1932.88
                             1940.04  1942.45  1956.17  1959.78  1961.51
                             1988.61  2018.17  2033.13  2130.70  2132.18
                             2179.01  2191.97  2210.00  2219.19  2226.69
                             2266.58  2275.13  2298.24  2323.59  2347.00
                             2371.87  4574.13  4586.32  4598.74  4604.18
                             4613.62  4624.65  4642.34  4646.47  4650.38
                             4685.12  4686.08

 Zero-point correction=                           0.289839 (Hartree/Particle)
 Thermal correction to Energy=                    0.313342
 Thermal correction to Enthalpy=                  0.314286
 Thermal correction to Gibbs Free Energy=         0.234599
 Sum of electronic and zero-point Energies=          -2749.302978
 Sum of electronic and thermal Energies=             -2749.279475
 Sum of electronic and thermal Enthalpies=           -2749.278531
 Sum of electronic and thermal Free Energies=        -2749.358218

                     E (Thermal)             CV                S
                      KCal/Mol        Cal/Mol-Kelvin    Cal/Mol-Kelvin
 Total                  196.625             94.520            167.716
 Electronic               0.000              0.000              0.000
 Translational            0.889              2.981             44.425
 Rotational               0.889              2.981             37.701
 Vibrational            194.847             88.559             85.590
 Vibration     1          0.593              1.986              7.070
 Vibration     2          0.593              1.985              6.134
 Vibration     3          0.593              1.984              5.852
 Vibration     4          0.595              1.978              4.822
 Vibration     5          0.597              1.972              4.353
 Vibration     6          0.599              1.964              3.950
 Vibration     7          0.603              1.951              3.514
 Vibration     8          0.606              1.942              3.295
 Vibration     9          0.616              1.909              2.753
 Vibration    10          0.617              1.906              2.706
 Vibration    11          0.625              1.881              2.446
 Vibration    12          0.626              1.876              2.408
 Vibration    13          0.634              1.851              2.209
 Vibration    14          0.638              1.839              2.127
 Vibration    15          0.640              1.832              2.086
 Vibration    16          0.643              1.823              2.026
 Vibration    17          0.655              1.787              1.840
 Vibration    18          0.669              1.743              1.653
 Vibration    19          0.682              1.704              1.512
 Vibration    20          0.694              1.670              1.406
 Vibration    21          0.729              1.570              1.156
 Vibration    22          0.758              1.490              0.998
 Vibration    23          0.766              1.470              0.963
 Vibration    24          0.775              1.448              0.925
 Vibration    25          0.780              1.434              0.904
 Vibration    26          0.807              1.366              0.803
 Vibration    27          0.830              1.309              0.728
 Vibration    28          0.838              1.290              0.705
 Vibration    29          0.848              1.268              0.679
 Vibration    30          0.852              1.257              0.666
 Vibration    31          0.872              1.212              0.616
 Vibration    32          0.878              1.200              0.604
 Vibration    33          0.888              1.176              0.580
 Vibration    34          0.909              1.133              0.537
 Vibration    35          0.913              1.124              0.529
 Vibration    36          0.918              1.112              0.519
 Vibration    37          0.958              1.031              0.449
 Vibration    38          0.963              1.023              0.442
 Vibration    39          0.971              1.006              0.429

 1\1\GINC-N018\Freq\RB3LYP\6-31++G(d,p)\C23H11N5S4\SHUO\30-Dec-2013\0\\
 #N Geom=AllCheck Guess=TCheck SCRF=Check Test GenChk RB3LYP/6-31++G(d,
 p) Freq\\Geom opt of No.5 candidate from the CEPDB database with SMILE
  code of c1cc2csc(-c3cnc(-c4ccc(-c5ccccc5)c5nsnc45)c4nsnc34)c2s1, HPC,
  20131227, Shuo Dai, Gaussian09\\0,1\C,-2.1762961968,-0.0428081927,-1.
 2707876407\C,-1.6280871914,1.1017311795,-0.7946602887\C,-0.301711512,0
 .8896531078,-0.265208314\C,0.6636124398,1.6855205079,0.3137190409\S,2.
 0717409265,0.7841410398,0.7255755071\C,1.3991893615,-0.7345157714,0.12

 Normal termination of Gaussian 09 at Mon Dec 30 02:01:38 2013.
