 Gaussian 09, Revision C.01,
 Gaussian 09:  EM64L-G09RevC.01 23-Sep-2011

 --------------------------------------------
 #B3LYP/6-31++G(d,p) opt scf=direct freq test
 --------------------------------------------

 Geom opt of No.47 candidate from the CEPDB database with SMILE code of
  [SiH2]1c(ccc1-c1ccc(-c2cncc3nsnc23)c2nsnc12)-c1ccc[Se]1, HPC, 2013122
 7, Shuo Dai, Gaussian09
 ----------------------------------------------------------------------
 Charge =  0 Multiplicity = 1

 SCF Done:  E(RB3LYP) =  -4493.63829060     A.U. after   16 cycles
 SCF Done:  E(RB3LYP) =  -4493.91743230     A.U. after   18 cycles
 SCF Done:  E(RB3LYP) =  -4494.26212676     A.U. after   18 cycles
 SCF Done:  E(RB3LYP) =  -4494.44165212     A.U. after   18 cycles
 SCF Done:  E(RB3LYP) =  -4494.49580175     A.U. after   18 cycles
 SCF Done:  E(RB3LYP) =  -4494.51506376     A.U. after   19 cycles
 SCF Done:  E(RB3LYP) =  -4494.52874586     A.U. after   19 cycles
 SCF Done:  E(RB3LYP) =  -4494.51425123     A.U. after   19 cycles
 SCF Done:  E(RB3LYP) =  -4494.52972294     A.U. after   19 cycles
 SCF Done:  E(RB3LYP) =  -4494.53297553     A.U. after   19 cycles
 SCF Done:  E(RB3LYP) =  -4494.54056979     A.U. after   17 cycles
 SCF Done:  E(RB3LYP) =  -4494.54061587     A.U. after   13 cycles
 SCF Done:  E(RB3LYP) =  -4494.54063162     A.U. after   12 cycles
 SCF Done:  E(RB3LYP) =  -4494.54063962     A.U. after   12 cycles
 SCF Done:  E(RB3LYP) =  -4494.54064435     A.U. after   12 cycles
 SCF Done:  E(RB3LYP) =  -4494.54064794     A.U. after   12 cycles
 SCF Done:  E(RB3LYP) =  -4494.54064950     A.U. after   11 cycles
 SCF Done:  E(RB3LYP) =  -4494.54065018     A.U. after   11 cycles
 SCF Done:  E(RB3LYP) =  -4494.54065039     A.U. after    9 cycles
 Optimization completed.
    -- Stationary point found.
 Normal termination of Gaussian 09 at Sun Dec 29 18:24:12 2013.

 ----------------------------------------------------------------------
 #N Geom=AllCheck Guess=TCheck SCRF=Check Test GenChk RB3LYP/6-31++G(d,
 p) Freq
 ----------------------------------------------------------------------

 Geom opt of No.47 candidate from the CEPDB database with SMILE code of
  [SiH2]1c(ccc1-c1ccc(-c2cncc3nsnc23)c2nsnc12)-c1ccc[Se]1, HPC, 2013122
 7, Shuo Dai, Gaussian09
 ----------------------------------------------------------------------
 Charge =  0 Multiplicity = 1

                         Standard orientation:
 ---------------------------------------------------------------------
 Center     Atomic      Atomic             Coordinates (Angstroms)
 Number     Number       Type             X           Y           Z
 ---------------------------------------------------------------------
      1         14           0       -2.281466    1.201846    0.880566
      2          1           0       -1.350101    1.006512    2.020685
      3          1           0       -3.089942    2.425746    1.126585
      4          6           0       -3.364648   -0.346898    0.535070
      5          6           0       -2.816673   -0.872084   -0.824467
      6          6           0       -2.236871    0.280029   -1.680954
      7          6           0       -1.376087    1.246742   -0.824573
      8          6           0        0.085351    0.916817   -0.700385
      9          6           0        0.677629   -0.280764   -1.039865
     10          6           0        2.073595   -0.533329   -0.889466
     11          6           0        2.975603    0.395631   -0.403333
     12          6           0        4.419333    0.108301   -0.287898
     13          6           0        5.389285    1.087852   -0.445242
     14          7           0        6.746841    0.906119   -0.374831
     15          6           0        7.230244   -0.286130   -0.125983
     16          6           0        6.362224   -1.400961    0.070430
     17          7           0        6.733161   -2.658791    0.344472
     18         16           0        5.345490   -3.521556    0.480793
     19          7           0        4.239342   -2.338974    0.197909
     20          6           0        4.930960   -1.209150   -0.016275
     21          6           0        2.406343    1.664830   -0.022264
     22          7           0        3.060395    2.707559    0.505230
     23         16           0        1.949401    3.884370    0.785895
     24          7           0        0.597877    3.120232    0.250689
     25          6           0        0.979858    1.907165   -0.167821
     26          6           0       -4.878225   -0.070765    0.588068
     27          6           0       -5.468678    0.795817   -0.528391
     28          6           0       -6.997303    0.694253   -0.477491
     29          6           0       -7.381733   -0.788945   -0.538755
     30         34           0       -5.972985   -1.734342    0.506722
     31          1           0       -3.143632   -1.080710    1.319928
     32          1           0       -3.595429   -1.416491   -1.371463
     33          1           0       -2.025537   -1.602501   -0.619346
     34          1           0       -3.060381    0.860185   -2.110666
     35          1           0       -1.667581   -0.112273   -2.532830
     36          1           0       -1.449814    2.269955   -1.210022
     37          1           0        0.073065   -1.082717   -1.449577
     38          1           0        2.437498   -1.511207   -1.179148
     39          1           0        5.085869    2.107501   -0.644751
     40          1           0        8.308857   -0.412841   -0.072190
     41          1           0       -5.119333    0.390757    1.550297
     42          1           0       -5.124689    0.426732   -1.501376
     43          1           0       -5.138331    1.838626   -0.434487
     44          1           0       -7.456347    1.253215   -1.302574
     45          1           0       -7.361959    1.138445    0.457014
     46          1           0       -7.365591   -1.171913   -1.561711
     47          1           0       -8.357391   -0.993756   -0.094542
 ---------------------------------------------------------------------

 SCF Done:  E(RB3LYP) =  -4494.54065039     A.U. after    2 cycles

 The electronic state is 1-A.
 Alpha  occ. eigenvalues -- -453.85614 -88.99788 -88.98741 -66.13799 -57.45659
 Alpha  occ. eigenvalues --  -52.12933 -52.12841 -52.12542 -14.39721 -14.39236
 Alpha  occ. eigenvalues --  -14.38549 -14.38410 -14.35807 -10.26799 -10.26203
 Alpha  occ. eigenvalues --  -10.25979 -10.25526 -10.25223 -10.23910 -10.23639
 Alpha  occ. eigenvalues --  -10.23121 -10.23095 -10.22741 -10.21827 -10.21802
 Alpha  occ. eigenvalues --  -10.21444 -10.20392 -10.20183 -10.20178 -10.20136
 Alpha  occ. eigenvalues --  -10.19631 -10.19558  -8.05102  -8.04044  -7.69910
 Alpha  occ. eigenvalues --   -6.01653  -6.01070  -6.00870  -6.00610  -6.00028
 Alpha  occ. eigenvalues --   -5.99787  -5.74178  -5.73827  -5.72880  -5.28530
 Alpha  occ. eigenvalues --   -3.64409  -3.64382  -3.64340  -2.09850  -2.09820
 Alpha  occ. eigenvalues --   -2.09026  -2.08745  -2.08576  -1.04229  -1.03212
 Alpha  occ. eigenvalues --   -0.96000  -0.91555  -0.90686  -0.87907  -0.84776
 Alpha  occ. eigenvalues --   -0.83127  -0.81422  -0.79410  -0.77446  -0.77125
 Alpha  occ. eigenvalues --   -0.74615  -0.71424  -0.70252  -0.68236  -0.66723
 Alpha  occ. eigenvalues --   -0.65203  -0.64650  -0.63165  -0.62379  -0.60016
 Alpha  occ. eigenvalues --   -0.58783  -0.57459  -0.54730  -0.53902  -0.53475
 Alpha  occ. eigenvalues --   -0.52212  -0.51797  -0.50676  -0.48960  -0.48495
 Alpha  occ. eigenvalues --   -0.47925  -0.47598  -0.47315  -0.46932  -0.46471
 Alpha  occ. eigenvalues --   -0.45486  -0.45143  -0.42529  -0.41751  -0.41032
 Alpha  occ. eigenvalues --   -0.40836  -0.40295  -0.40167  -0.39538  -0.39260
 Alpha  occ. eigenvalues --   -0.38781  -0.37528  -0.37234  -0.36584  -0.35836
 Alpha  occ. eigenvalues --   -0.35533  -0.35386  -0.34766  -0.34509  -0.34240
 Alpha  occ. eigenvalues --   -0.33480  -0.33128  -0.32708  -0.32136  -0.31397
 Alpha  occ. eigenvalues --   -0.31282  -0.30484  -0.29872  -0.28092  -0.27735
 Alpha  occ. eigenvalues --   -0.27638  -0.27336  -0.22913  -0.21176
 Alpha virt. eigenvalues --   -0.11528  -0.09866  -0.03501  -0.02264  -0.01866
 Alpha virt. eigenvalues --   -0.01762  -0.01521  -0.01173  -0.00965  -0.00622
 Alpha virt. eigenvalues --   -0.00018   0.00141   0.00653   0.00717   0.01211

 Mulliken atomic charges:
              1
     1  Si   1.103499
     2  H   -0.038892
     3  H   -0.087095
     4  C   -0.204856
     5  C   -0.530182
     6  C    0.002049
     7  C   -0.176047
     8  C    0.416561
     9  C   -0.839693
    10  C   -0.967090
    11  C    0.067122
    12  C   -0.458102
    13  C   -0.175492
    14  N   -0.112188
    15  C   -0.206014
    16  C    0.354371
    17  N   -0.425113
    18  S    0.893119
    19  N   -0.437301
    20  C    0.089097
    21  C    0.083305
    22  N   -0.380659
    23  S    0.934820
    24  N   -0.345895
    25  C    0.125918
    26  C   -0.831559
    27  C    0.138854
    28  C   -0.493326
    29  C   -0.473664
    30  Se  -0.035396
    31  H    0.223710
    32  H    0.256476
    33  H    0.186517
    34  H    0.213514
    35  H    0.203252
    36  H    0.196377
    37  H    0.015077
    38  H    0.149377
    39  H    0.225789
    40  H    0.179768
    41  H    0.198720
    42  H    0.095992
    43  H    0.171016
    44  H    0.179045
    45  H    0.149075
    46  H    0.184044
    47  H    0.182099
 Sum of Mulliken atomic charges =  -0.00000

 Dipole moment (field-independent basis, Debye):
    X=             -2.9035    Y=             -0.0588    Z=             -1.5718  Tot=              3.3022
 Quadrupole moment (field-independent basis, Debye-Ang):
   XX=           -210.2948   YY=           -200.1590   ZZ=           -198.9662
   XY=            -16.9949   XZ=              7.6055   YZ=              1.9371

  Exact polarizability: 509.216 -14.901 372.411  12.999   7.959 223.735
 Approx polarizability: 722.484   3.648 685.538  31.999  26.478 386.173

                     1                      2                      3
                     A                      A                      A
 Frequencies --    14.7482                21.4630                31.2172
 Red. masses --     9.1649                 8.2221                 5.4739
 Frc consts  --     0.0012                 0.0022                 0.0031
 IR Inten    --     0.1054                 0.4650                 0.1188

                     4                      5                      6
                     A                      A                      A
 Frequencies --    31.4485                54.0177                66.2475
 Red. masses --     9.2552                 5.8061                 3.9550
 Frc consts  --     0.0054                 0.0100                 0.0102
 IR Inten    --     0.4004                 0.2269                 0.1375

                     7                      8                      9
                     A                      A                      A
 Frequencies --    68.6331                84.7116               101.0631
 Red. masses --     5.9222                 3.7598                 5.2252
 Frc consts  --     0.0164                 0.0159                 0.0314
 IR Inten    --     0.0076                 0.2591                 0.0986

                    10                     11                     12
                     A                      A                      A
 Frequencies --   134.7182               139.3777               168.5925
 Red. masses --     7.5643                 5.2416                 5.7560
 Frc consts  --     0.0809                 0.0600                 0.0964
 IR Inten    --     0.7971                 0.3300                 1.3746

                    13                     14                     15
                     A                      A                      A
 Frequencies --   177.2833               195.5512               198.8672
 Red. masses --    12.6083                 6.7250                 6.9064
 Frc consts  --     0.2335                 0.1515                 0.1609
 IR Inten    --     0.3692                 0.3874                 1.2350

                    16                     17                     18
                     A                      A                      A
 Frequencies --   205.0590               223.7743               235.4241
 Red. masses --     6.4046                 3.9892                 2.7859
 Frc consts  --     0.1587                 0.1177                 0.0910
 IR Inten    --     0.6358                 1.7696                 0.3320

                    19                     20                     21
                     A                      A                      A
 Frequencies --   263.8348               279.1922               290.1208
 Red. masses --     4.7924                 4.9073                 2.1367
 Frc consts  --     0.1965                 0.2254                 0.1060
 IR Inten    --     0.3488                 1.1444                 0.1455

                    22                     23                     24
                     A                      A                      A
 Frequencies --   334.3361               361.1349               369.8057
 Red. masses --     3.1514                 5.2713                 4.0981
 Frc consts  --     0.2075                 0.4051                 0.3302
 IR Inten    --     1.0038                 2.0605                 2.9345

                    25                     26                     27
                     A                      A                      A
 Frequencies --   421.6651               435.8669               465.6581
 Red. masses --     3.1231                 7.0900                 3.6210
 Frc consts  --     0.3272                 0.7936                 0.4626
 IR Inten    --     7.7627                 7.4377                 2.8882

                    28                     29                     30
                     A                      A                      A
 Frequencies --   470.1948               483.2782               494.5496
 Red. masses --     6.0276                 3.6776                 5.7817
 Frc consts  --     0.7851                 0.5061                 0.8332
 IR Inten    --     8.4258                 1.5758                 2.6079

                    31                     32                     33
                     A                      A                      A
 Frequencies --   502.4529               514.7577               531.1285
 Red. masses --     6.1139                10.6548                 2.0011
 Frc consts  --     0.9094                 1.6634                 0.3326
 IR Inten    --     7.3073                 5.1312                 4.5201

                    34                     35                     36
                     A                      A                      A
 Frequencies --   550.1548               575.6921               578.2016
 Red. masses --     7.1110                 3.5951                 3.2500
 Frc consts  --     1.2681                 0.7020                 0.6402
 IR Inten    --     9.2552                 0.2019                 1.2610

                    37                     38                     39
                     A                      A                      A
 Frequencies --   583.6889               597.5663               599.2415
 Red. masses --     4.6981                 5.3738                 2.6633
 Frc consts  --     0.9430                 1.1306                 0.5635
 IR Inten    --     8.7912                 3.5475                 4.6693

                    40                     41                     42
                     A                      A                      A
 Frequencies --   604.5810               624.3032               650.4291
 Red. masses --     6.5611                 3.3628                 5.0887
 Frc consts  --     1.4130                 0.7722                 1.2684
 IR Inten    --     8.6598                 3.2686                 2.8851

                    43                     44                     45
                     A                      A                      A
 Frequencies --   661.4395               665.7546               678.0634
 Red. masses --     4.4350                 2.9198                 4.5556
 Frc consts  --     1.1432                 0.7625                 1.2341
 IR Inten    --     5.1710                 3.5165                23.1385

                    46                     47                     48
                     A                      A                      A
 Frequencies --   727.8656               737.7281               742.6331
 Red. masses --     2.7637                 3.7662                 1.8732
 Frc consts  --     0.8627                 1.2077                 0.6087
 IR Inten    --     1.8042                64.4328                17.1470

                    49                     50                     51
                     A                      A                      A
 Frequencies --   764.5261               781.8869               795.3924
 Red. masses --     3.7279                 5.5542                 3.6141
 Frc consts  --     1.2838                 2.0006                 1.3471
 IR Inten    --    50.5213                 3.7613                66.8321

                    52                     53                     54
                     A                      A                      A
 Frequencies --   800.0685               826.2606               826.7201
 Red. masses --     3.7796                 1.9860                 7.0472
 Frc consts  --     1.4255                 0.7988                 2.8378
 IR Inten    --    29.3304                38.7888                43.6131

                    55                     56                     57
                     A                      A                      A
 Frequencies --   833.1988               837.3733               842.4775
 Red. masses --     7.4825                 1.8098                 4.8265
 Frc consts  --     3.0605                 0.7477                 2.0184
 IR Inten    --    81.5795                38.1720                20.2623

                    58                     59                     60
                     A                      A                      A
 Frequencies --   854.0821               864.6853               875.7219
 Red. masses --     6.5164                 1.5598                 2.9693
 Frc consts  --     2.8007                 0.6871                 1.3416
 IR Inten    --     4.3559                24.4372                39.0529

                    61                     62                     63
                     A                      A                      A
 Frequencies --   892.2072               901.0130               904.4180
 Red. masses --     4.4515                 2.0392                 2.4236
 Frc consts  --     2.0878                 0.9754                 1.1680
 IR Inten    --     1.6294                46.8576                12.1020

                    64                     65                     66
                     A                      A                      A
 Frequencies --   906.0575               918.2169               956.5201
 Red. masses --     1.5078                 7.7193                 1.4339
 Frc consts  --     0.7293                 3.8346                 0.7730
 IR Inten    --     8.9925                 5.6954                 0.3081

                    67                     68                     69
                     A                      A                      A
 Frequencies --   961.7628               966.5878               972.0145
 Red. masses --     1.4721                 1.9099                 1.1457
 Frc consts  --     0.8023                 1.0513                 0.6378
 IR Inten    --     4.0844                11.4387                56.3927

                    70                     71                     72
                     A                      A                      A
 Frequencies --   977.7003               993.0030              1011.0739
 Red. masses --     1.5676                 2.7151                 1.5831
 Frc consts  --     0.8829                 1.5774                 0.9535
 IR Inten    --    24.6929                 0.6762                 0.4118

                    73                     74                     75
                     A                      A                      A
 Frequencies --  1040.4389              1043.4187              1069.4182
 Red. masses --     1.8167                 2.4247                 2.4123
 Frc consts  --     1.1587                 1.5553                 1.6255
 IR Inten    --    24.6743                15.8777                12.6138

                    76                     77                     78
                     A                      A                      A
 Frequencies --  1080.4513              1085.6704              1104.7872
 Red. masses --     1.3616                 1.6537                 2.4371
 Frc consts  --     0.9365                 1.1484                 1.7526
 IR Inten    --     5.9131                12.3408                18.2142

                    79                     80                     81
                     A                      A                      A
 Frequencies --  1115.4893              1130.0783              1153.9552
 Red. masses --     1.9543                 3.1567                 1.5177
 Frc consts  --     1.4328                 2.3752                 1.1907
 IR Inten    --    17.8278                 5.2738                 3.3856

                    82                     83                     84
                     A                      A                      A
 Frequencies --  1170.3494              1174.0332              1203.1064
 Red. masses --     1.3629                 2.2381                 1.2749
 Frc consts  --     1.0999                 1.8176                 1.0873
 IR Inten    --    15.8749                10.0497                 8.3419

                    85                     86                     87
                     A                      A                      A
 Frequencies --  1232.6946              1247.6842              1259.3508
 Red. masses --     1.3618                 1.5982                 2.0164
 Frc consts  --     1.2192                 1.4658                 1.8842
 IR Inten    --    14.9809                 5.7252                10.6882

                    88                     89                     90
                     A                      A                      A
 Frequencies --  1271.8787              1284.4648              1304.1448
 Red. masses --     1.2539                 1.3184                 2.6545
 Frc consts  --     1.1951                 1.2816                 2.6600
 IR Inten    --    37.8335                12.2108                10.4338

                    91                     92                     93
                     A                      A                      A
 Frequencies --  1309.4969              1318.9238              1327.4757
 Red. masses --     1.3476                 1.5263                 1.9665
 Frc consts  --     1.3615                 1.5643                 2.0417
 IR Inten    --     4.1547                 6.2007                 1.6891

                    94                     95                     96
                     A                      A                      A
 Frequencies --  1336.2060              1339.6881              1345.4515
 Red. masses --     2.7012                 1.3700                 2.8266
 Frc consts  --     2.8415                 1.4487                 3.0148
 IR Inten    --    11.3880                 0.1442                19.8948

                    97                     98                     99
                     A                      A                      A
 Frequencies --  1349.4109              1364.9340              1367.7309
 Red. masses --     1.6752                 1.3648                 2.7382
 Frc consts  --     1.7973                 1.4981                 3.0180
 IR Inten    --     1.2379                 1.0976                 8.1245

                   100                    101                    102
                     A                      A                      A
 Frequencies --  1371.7448              1372.3412              1397.2175
 Red. masses --     3.3522                 1.5476                 5.0383
 Frc consts  --     3.7164                 1.7172                 5.7951
 IR Inten    --    18.4639                 0.7576                 0.4760

                   103                    104                    105
                     A                      A                      A
 Frequencies --  1400.6760              1409.7317              1434.3207
 Red. masses --     1.3436                 3.2716                 3.5045
 Frc consts  --     1.5531                 3.8308                 4.2479
 IR Inten    --     5.0477                 7.2915                12.1952

                   106                    107                    108
                     A                      A                      A
 Frequencies --  1483.1505              1489.1983              1499.9044
 Red. masses --     1.0925                 1.0809                 1.0902
 Frc consts  --     1.4159                 1.4124                 1.4451
 IR Inten    --     3.7686                 5.6117                 4.6320

                   109                    110                    111
                     A                      A                      A
 Frequencies --  1503.5231              1508.9277              1512.6754
 Red. masses --     1.1012                 1.1068                 5.9928
 Frc consts  --     1.4667                 1.4847                 8.0793
 IR Inten    --     6.3628                 6.1007                21.9914

                   112                    113                    114
                     A                      A                      A
 Frequencies --  1526.8733              1547.3825              1580.7578
 Red. masses --     5.9550                 5.3580                 5.9080
 Frc consts  --     8.1797                 7.5587                 8.6980
 IR Inten    --    30.4314                14.0179                87.6151

                   115                    116                    117
                     A                      A                      A
 Frequencies --  1609.5465              1634.1377              2222.9134
 Red. masses --     5.3871                 5.7425                 1.0342
 Frc consts  --     8.2227                 9.0349                 3.0109
 IR Inten    --    51.1978                11.1449               125.2061

                   118                    119                    120
                     A                      A                      A
 Frequencies --  2236.8751              3032.7541              3037.9293
 Red. masses --     1.0480                 1.0599                 1.0683
 Frc consts  --     3.0897                 5.7435                 5.8089
 IR Inten    --   127.8875                39.7142                 2.3676

                   121                    122                    123
                     A                      A                      A
 Frequencies --  3038.5452              3044.1892              3051.5971
 Red. masses --     1.0617                 1.0654                 1.0735
 Frc consts  --     5.7754                 5.8169                 5.8901
 IR Inten    --    34.4842                37.2124                11.7930

                   124                    125                    126
                     A                      A                      A
 Frequencies --  3064.9957              3065.8722              3071.8810
 Red. masses --     1.0853                 1.0898                 1.0925
 Frc consts  --     6.0072                 6.0353                 6.0738
 IR Inten    --     5.6865                 6.9327                10.2590

                   127                    128                    129
                     A                      A                      A
 Frequencies --  3077.4182              3084.2807              3090.3186
 Red. masses --     1.1010                 1.0701                 1.0979
 Frc consts  --     6.1437                 5.9978                 6.1773
 IR Inten    --    10.5003                41.5879                37.5005

                   130                    131                    132
                     A                      A                      A
 Frequencies --  3095.4096              3141.9667              3185.9798
 Red. masses --     1.0995                 1.1089                 1.0917
 Frc consts  --     6.2073                 6.4498                 6.5290
 IR Inten    --    53.6163                 9.5394                 4.7285

                   133                    134                    135
                     A                      A                      A
 Frequencies --  3206.0470              3234.6127              3241.3428
 Red. masses --     1.0889                 1.0915                 1.0911
 Frc consts  --     6.5943                 6.7286                 6.7544
 IR Inten    --    15.1068                 0.9434                 6.1656

 - Thermochemistry -
 -------------------
 Temperature   298.150 Kelvin.  Pressure   1.00000 Atm.
 Atom     1 has atomic number 14 and mass  27.97693

 Molecular mass:   489.00164 amu.
 Principal axes and moments of inertia in atomic units:
                           1         2         3
     Eigenvalues --  7259.45439********************
           X            0.99986  -0.01558   0.00541
           Y            0.01554   0.99985   0.00807
           Z           -0.00554  -0.00798   0.99995
 This molecule is an asymmetric top.
 Rotational symmetry number  1.
 Warning -- assumption of classical behavior for rotation
           may cause significant error
 Rotational temperatures (Kelvin)      0.01193     0.00224     0.00195
 Rotational constants (GHZ):           0.24861     0.04676     0.04071
 Zero-point vibrational energy     925600.1 (Joules/Mol)
                                  221.22373 (Kcal/Mol)
 Warning -- explicit consideration of  40 degrees of freedom as
           vibrations may cause significant error
 Vibrational temperatures:     21.22    30.88    44.91    45.25    77.72
          (Kelvin)             95.32    98.75   121.88   145.41   193.83
                              200.53   242.57   255.07   281.35   286.13
                              295.03   321.96   338.72   379.60   401.69
                              417.42   481.03   519.59   532.07   606.68
                              627.11   669.98   676.50   695.33   711.55
                              722.92   740.62   764.17   791.55   828.29
                              831.90   839.80   859.76   862.17   869.86
                              898.23   935.82   951.66   957.87   975.58
                             1047.23  1061.42  1068.48  1099.98  1124.96
                             1144.39  1151.12  1188.80  1189.46  1198.79
                             1204.79  1212.14  1228.83  1244.09  1259.97
                             1283.69  1296.36  1301.25  1303.61  1321.11
                             1376.22  1383.76  1390.70  1398.51  1406.69
                             1428.71  1454.71  1496.96  1501.24  1538.65
                             1554.53  1562.04  1589.54  1604.94  1625.93
                             1660.28  1683.87  1689.17  1731.00  1773.57
                             1795.14  1811.92  1829.95  1848.06  1876.37
                             1884.07  1897.63  1909.94  1922.50  1927.51
                             1935.80  1941.50  1963.83  1967.86  1973.63
                             1974.49  2010.28  2015.26  2028.29  2063.66
                             2133.92  2142.62  2158.03  2163.23  2171.01
                             2176.40  2196.83  2226.34  2274.36  2315.78
                             2351.16  3198.27  3218.36  4363.45  4370.90
                             4371.78  4379.90  4390.56  4409.84  4411.10
                             4419.75  4427.71  4437.59  4446.27  4453.60
                             4520.58  4583.91  4612.78  4653.88  4663.56

 Zero-point correction=                           0.352542 (Hartree/Particle)
 Thermal correction to Energy=                    0.376785
 Thermal correction to Enthalpy=                  0.377729
 Thermal correction to Gibbs Free Energy=         0.295081
 Sum of electronic and zero-point Energies=          -4494.188108
 Sum of electronic and thermal Energies=             -4494.163866
 Sum of electronic and thermal Enthalpies=           -4494.162921
 Sum of electronic and thermal Free Energies=        -4494.245569

                     E (Thermal)             CV                S
                      KCal/Mol        Cal/Mol-Kelvin    Cal/Mol-Kelvin
 Total                  236.436             95.669            173.947
 Electronic               0.000              0.000              0.000
 Translational            0.889              2.981             44.449
 Rotational               0.889              2.981             37.761
 Vibrational            234.659             89.707             91.737
 Vibration     1          0.593              1.986              7.239
 Vibration     2          0.593              1.985              6.494
 Vibration     3          0.594              1.983              5.751
 Vibration     4          0.594              1.983              5.736
 Vibration     5          0.596              1.976              4.665
 Vibration     6          0.598              1.970              4.262
 Vibration     7          0.598              1.969              4.192
 Vibration     8          0.601              1.960              3.779
 Vibration     9          0.604              1.948              3.434
 Vibration    10          0.613              1.919              2.878
 Vibration    11          0.615              1.914              2.812
 Vibration    12          0.625              1.881              2.451
 Vibration    13          0.628              1.870              2.357
 Vibration    14          0.636              1.846              2.175
 Vibration    15          0.637              1.841              2.144
 Vibration    16          0.640              1.833              2.087
 Vibration    17          0.649              1.805              1.928
 Vibration    18          0.655              1.787              1.837
 Vibration    19          0.670              1.739              1.636
 Vibration    20          0.680              1.712              1.539
 Vibration    21          0.686              1.692              1.473
 Vibration    22          0.716              1.607              1.239
 Vibration    23          0.735              1.552              1.117
 Vibration    24          0.742              1.534              1.081
 Vibration    25          0.784              1.423              0.886
 Vibration    26          0.796              1.392              0.840
 Vibration    27          0.823              1.326              0.750
 Vibration    28          0.827              1.316              0.737
 Vibration    29          0.839              1.287              0.701
 Vibration    30          0.850              1.262              0.672
 Vibration    31          0.858              1.245              0.652
 Vibration    32          0.870              1.217              0.622
 Vibration    33          0.886              1.181              0.585
 Vibration    34          0.905              1.139              0.544
 Vibration    35          0.932              1.084              0.493
 Vibration    36          0.935              1.078              0.489
 Vibration    37          0.941              1.067              0.479
 Vibration    38          0.955              1.037              0.454
 Vibration    39          0.957              1.033              0.451
 Vibration    40          0.963              1.022              0.442

 Normal termination of Gaussian 09 at Sun Dec 29 20:31:46 2013.
