 Gaussian 09, Revision C.01,
 Gaussian 09:  EM64L-G09RevC.01 23-Sep-2011

 --------------------------------------------
 #B3LYP/6-31++G(d,p) opt scf=direct freq test
 --------------------------------------------

 Geom opt of No.59 candidate from the CEPDB database with SMILE code of
  c1cc2c(sc(-c3cnc(s3)-c3ncncn3)c2[Se]1)-c1scc2nccnc12, HPC, 20131227,
 Shuo Dai, Gaussian09
 ----------------------------------------------------------------------
 Charge =  0 Multiplicity = 1

 SCF Done:  E(RB3LYP) =  -4611.62203527     A.U. after   17 cycles
 SCF Done:  E(RB3LYP) =  -4612.04910114     A.U. after   18 cycles
 SCF Done:  E(RB3LYP) =  -4612.61704251     A.U. after   17 cycles
 SCF Done:  E(RB3LYP) =  -4613.01689062     A.U. after   17 cycles
 SCF Done:  E(RB3LYP) =  -4613.06146139     A.U. after   18 cycles
 SCF Done:  E(RB3LYP) =  -4613.15243726     A.U. after   18 cycles
 SCF Done:  E(RB3LYP) =  -4613.21345564     A.U. after   18 cycles
 SCF Done:  E(RB3LYP) =  -4613.21793147     A.U. after   18 cycles
 SCF Done:  E(RB3LYP) =  -4613.22267561     A.U. after   18 cycles
 SCF Done:  E(RB3LYP) =  -4613.22379818     A.U. after   16 cycles
 SCF Done:  E(RB3LYP) =  -4613.22648278     A.U. after   16 cycles
 SCF Done:  E(RB3LYP) =  -4613.22650526     A.U. after   15 cycles
 SCF Done:  E(RB3LYP) =  -4613.22651051     A.U. after   15 cycles
 SCF Done:  E(RB3LYP) =  -4613.22651443     A.U. after   11 cycles
 SCF Done:  E(RB3LYP) =  -4613.22651590     A.U. after   11 cycles
 SCF Done:  E(RB3LYP) =  -4613.22651671     A.U. after   11 cycles
 SCF Done:  E(RB3LYP) =  -4613.22651715     A.U. after   10 cycles
 SCF Done:  E(RB3LYP) =  -4613.22651748     A.U. after   10 cycles
 SCF Done:  E(RB3LYP) =  -4613.22651782     A.U. after    9 cycles
 Optimization completed.
    -- Stationary point found.
 Normal termination of Gaussian 09 at Sun Dec 29 21:16:54 2013.

 ----------------------------------------------------------------------
 #N Geom=AllCheck Guess=TCheck SCRF=Check Test GenChk RB3LYP/6-31++G(d,
 p) Freq
 ----------------------------------------------------------------------

 Geom opt of No.59 candidate from the CEPDB database with SMILE code of
  c1cc2c(sc(-c3cnc(s3)-c3ncncn3)c2[Se]1)-c1scc2nccnc12, HPC, 20131227,
 Shuo Dai, Gaussian09
 ----------------------------------------------------------------------
 Charge =  0 Multiplicity = 1

                         Standard orientation:
 ---------------------------------------------------------------------
 Center     Atomic      Atomic             Coordinates (Angstroms)
 Number     Number       Type             X           Y           Z
 ---------------------------------------------------------------------
      1          6           0       -2.110700    3.387736   -0.370248
      2          6           0       -2.718800    2.179023   -0.352940
      3          6           0       -1.815816    1.058755   -0.233441
      4          6           0       -2.001915   -0.323517   -0.224326
      5         16           0       -0.451143   -1.135610   -0.115872
      6          6           0        0.457093    0.366262   -0.103506
      7          6           0        1.894248    0.378094   -0.034753
      8          6           0        2.734788    1.489005   -0.020292
      9          7           0        4.064188    1.240254    0.053878
     10          6           0        4.308574   -0.046320    0.102095
     11         16           0        2.872566   -1.064369    0.058436
     12          6           0        5.633465   -0.660119    0.184765
     13          7           0        6.718299    0.132546    0.216592
     14          6           0        7.877326   -0.519668    0.293558
     15          7           0        8.038761   -1.849649    0.340264
     16          6           0        6.889912   -2.535175    0.301966
     17          7           0        5.669738   -2.006986    0.225085
     18          6           0       -0.430657    1.426954   -0.165472
     19         34           0       -0.214037    3.294851   -0.226973
     20          6           0       -3.213853   -1.105270   -0.288613
     21         16           0       -3.243796   -2.648705   -1.103237
     22          6           0       -4.882056   -2.973699   -0.714540
     23          6           0       -5.428343   -1.929246    0.011692
     24          7           0       -6.714888   -1.877980    0.481173
     25          6           0       -7.008998   -0.810729    1.181887
     26          6           0       -6.064965    0.240878    1.451357
     27          7           0       -4.830781    0.232315    1.005501
     28          6           0       -4.482476   -0.858414    0.261203
     29          1           0       -2.586849    4.355916   -0.446576
     30          1           0       -3.792706    2.058904   -0.395430
     31          1           0        2.399161    2.516971   -0.065448
     32          1           0        8.779871    0.086858    0.321469
     33          1           0        6.957292   -3.620216    0.336508
     34          1           0       -5.364180   -3.888129   -1.029098
     35          1           0       -8.021311   -0.731141    1.574149
     36          1           0       -6.374208    1.094045    2.052484
 ---------------------------------------------------------------------

 SCF Done:  E(RB3LYP) =  -4613.22651782     A.U. after    2 cycles

 The electronic state is 1-A.
 Alpha  occ. eigenvalues -- -453.91089 -88.95502 -88.94153 -88.93956 -57.50960
 Alpha  occ. eigenvalues --  -52.18361 -52.18254 -52.17954 -14.37557 -14.37450
 Alpha  occ. eigenvalues --  -14.36927 -14.36460 -14.36413 -14.36297 -10.30273
 Alpha  occ. eigenvalues --  -10.28817 -10.28621 -10.27273 -10.26309 -10.26221
 Alpha  occ. eigenvalues --  -10.26155 -10.26106 -10.25843 -10.25806 -10.25766
 Alpha  occ. eigenvalues --  -10.25551 -10.24734 -10.24499 -10.24215 -10.23846
 Alpha  occ. eigenvalues --  -10.23120 -10.21584  -8.01348  -8.00015  -7.99827
 Alpha  occ. eigenvalues --   -7.75265  -5.97743  -5.97363  -5.97138  -5.96470
 Alpha  occ. eigenvalues --   -5.96236  -5.96083  -5.95881  -5.95687  -5.95550
 Alpha  occ. eigenvalues --   -5.79503  -5.79119  -5.78387  -2.15153  -2.15092
 Alpha  occ. eigenvalues --   -2.14457  -2.14150  -2.14056  -1.04376  -1.00505
 Alpha  occ. eigenvalues --   -0.98874  -0.93746  -0.92785  -0.92198  -0.91991
 Alpha  occ. eigenvalues --   -0.90470  -0.85330  -0.83284  -0.79907  -0.78092
 Alpha  occ. eigenvalues --   -0.77816  -0.74864  -0.73975  -0.71476  -0.70151
 Alpha  occ. eigenvalues --   -0.69545  -0.68792  -0.65394  -0.63445  -0.60975
 Alpha  occ. eigenvalues --   -0.60298  -0.59381  -0.56806  -0.56379  -0.55821
 Alpha  occ. eigenvalues --   -0.54472  -0.53333  -0.51414  -0.50816  -0.48882
 Alpha  occ. eigenvalues --   -0.47394  -0.47375  -0.46139  -0.45540  -0.45077
 Alpha  occ. eigenvalues --   -0.44913  -0.44485  -0.44077  -0.43532  -0.42901
 Alpha  occ. eigenvalues --   -0.42219  -0.41874  -0.40501  -0.39416  -0.38574
 Alpha  occ. eigenvalues --   -0.38041  -0.37817  -0.36719  -0.35967  -0.35403
 Alpha  occ. eigenvalues --   -0.35117  -0.34502  -0.34370  -0.33555  -0.31963
 Alpha  occ. eigenvalues --   -0.29716  -0.29632  -0.28824  -0.28429  -0.28051
 Alpha  occ. eigenvalues --   -0.27089  -0.26418  -0.25795  -0.25344  -0.20549
 Alpha virt. eigenvalues --   -0.11698  -0.09905  -0.06663  -0.06404  -0.03872
 Alpha virt. eigenvalues --   -0.02971  -0.02430  -0.01833  -0.01286  -0.01040
 Alpha virt. eigenvalues --   -0.00520  -0.00273   0.00298   0.00540   0.00835

 Mulliken atomic charges:
              1
     1  C    0.027960
     2  C   -0.166235
     3  C    0.003898
     4  C   -0.139003
     5  S   -0.131967
     6  C   -0.273401
     7  C   -0.320720
     8  C    0.132319
     9  N   -0.056827
    10  C   -0.293596
    11  S    0.225602
    12  C   -0.236682
    13  N   -0.066804
    14  C    0.293069
    15  N   -0.258498
    16  C    0.203808
    17  N   -0.196646
    18  C    0.294682
    19  Se  -0.018887
    20  C   -0.010145
    21  S    0.119955
    22  C   -0.412190
    23  C   -0.035857
    24  N   -0.192162
    25  C    0.076839
    26  C    0.112470
    27  N   -0.162811
    28  C    0.025302
    29  H    0.204620
    30  H    0.130039
    31  H    0.245485
    32  H    0.168582
    33  H    0.170139
    34  H    0.221485
    35  H    0.161354
    36  H    0.154822
 Sum of Mulliken atomic charges =  -0.00000

 Dipole moment (field-independent basis, Debye):
    X=             -4.5581    Y=              0.0533    Z=             -0.1493  Tot=              4.5609
 Quadrupole moment (field-independent basis, Debye-Ang):
   XX=           -193.5738   YY=           -182.8646   ZZ=           -194.1950
   XY=            -10.8160   XZ=             -3.5484   YZ=              2.5040

  Exact polarizability: 779.505   7.674 379.894 -12.887  17.435 185.094
 Approx polarizability:1145.548  43.866 754.024 -21.326  55.405 325.905

                     1                      2                      3
                     A                      A                      A
 Frequencies --    15.9003                24.7595                33.2619
 Red. masses --     8.4237                 6.7632                 9.4689
 Frc consts  --     0.0013                 0.0024                 0.0062
 IR Inten    --     0.0022                 0.1941                 0.0765

                     4                      5                      6
                     A                      A                      A
 Frequencies --    37.7227                52.6228                69.5105
 Red. masses --     9.6705                 8.8488                 8.9667
 Frc consts  --     0.0081                 0.0144                 0.0255
 IR Inten    --     0.0989                 0.0100                 0.0693

                     7                      8                      9
                     A                      A                      A
 Frequencies --    74.4069                86.1464               113.6292
 Red. masses --     7.8421                 9.3975                11.8934
 Frc consts  --     0.0256                 0.0411                 0.0905
 IR Inten    --     0.0710                 0.0320                 0.6481

                    10                     11                     12
                     A                      A                      A
 Frequencies --   140.0652               143.3224               160.9044
 Red. masses --     9.1428                 8.0846                13.0877
 Frc consts  --     0.1057                 0.0978                 0.1996
 IR Inten    --     0.3960                 0.6010                 0.2807

                    13                     14                     15
                     A                      A                      A
 Frequencies --   188.9422               199.0169               216.9013
 Red. masses --     7.6724                 8.6713                 9.2930
 Frc consts  --     0.1614                 0.2024                 0.2576
 IR Inten    --     5.6383                 0.5267                 1.3375

                    16                     17                     18
                     A                      A                      A
 Frequencies --   227.2169               251.8069               270.2432
 Red. masses --     9.5015                13.8489                 8.2223
 Frc consts  --     0.2890                 0.5174                 0.3538
 IR Inten    --     0.5439                 1.0029                 1.0965

                    19                     20                     21
                     A                      A                      A
 Frequencies --   296.1075               354.8369               357.9938
 Red. masses --     6.7889                17.6135                 3.4951
 Frc consts  --     0.3507                 1.3066                 0.2639
 IR Inten    --     0.3017                 1.7601                 0.0103

                    22                     23                     24
                     A                      A                      A
 Frequencies --   374.5981               383.3779               427.5954
 Red. masses --     7.8356                12.8629                 7.0514
 Frc consts  --     0.6478                 1.1139                 0.7596
 IR Inten    --     7.0937                 0.8600                19.7003

                    25                     26                     27
                     A                      A                      A
 Frequencies --   438.7772               461.9819               472.3026
 Red. masses --     9.7751                 9.6562                 5.3721
 Frc consts  --     1.1088                 1.2142                 0.7061
 IR Inten    --     3.7815                 6.3914                 4.8433

                    28                     29                     30
                     A                      A                      A
 Frequencies --   477.0068               486.7101               496.2606
 Red. masses --     8.7238                12.6213                 6.4336
 Frc consts  --     1.1695                 1.7616                 0.9335
 IR Inten    --     3.4683                 2.5824                 3.6746

                    31                     32                     33
                     A                      A                      A
 Frequencies --   508.9211               530.1708               559.6271
 Red. masses --     9.8266                 4.2312                 3.9829
 Frc consts  --     1.4995                 0.7007                 0.7349
 IR Inten    --     4.7086                 4.9592                 0.2363

                    34                     35                     36
                     A                      A                      A
 Frequencies --   589.0083               614.9952               615.7979
 Red. masses --     4.2580                 5.8629                 7.0509
 Frc consts  --     0.8704                 1.3065                 1.5753
 IR Inten    --     1.3983                 6.7593                 2.2827

                    37                     38                     39
                     A                      A                      A
 Frequencies --   624.2873               647.2791               649.7964
 Red. masses --     8.0832                 4.6391                11.8463
 Frc consts  --     1.8561                 1.1452                 2.9470
 IR Inten    --    10.6656                14.2785                 9.1201

                    40                     41                     42
                     A                      A                      A
 Frequencies --   662.5510               680.4451               700.9171
 Red. masses --     8.6739                 1.8638                 9.2448
 Frc consts  --     2.2434                 0.5084                 2.6760
 IR Inten    --     2.5057                16.0317                14.3539

                    43                     44                     45
                     A                      A                      A
 Frequencies --   705.1545               739.9670               757.9117
 Red. masses --     1.3488                 9.3115                 8.8565
 Frc consts  --     0.3952                 3.0039                 2.9974
 IR Inten    --    53.7923                17.5028                30.1815

                    46                     47                     48
                     A                      A                      A
 Frequencies --   774.9696               784.6347               803.4214
 Red. masses --     2.7537                 6.3700                 9.1200
 Frc consts  --     0.9744                 2.3106                 3.4684
 IR Inten    --    19.3327                34.1638                 1.9233

                    49                     50                     51
                     A                      A                      A
 Frequencies --   809.2495               840.8127               846.9194
 Red. masses --     9.2242                 5.5083                 7.5838
 Frc consts  --     3.5591                 2.2944                 3.2049
 IR Inten    --     6.3046                25.4355                16.3419

                    52                     53                     54
                     A                      A                      A
 Frequencies --   849.0892               878.5991               881.7464
 Red. masses --     1.5717                 1.2155                 3.7926
 Frc consts  --     0.6676                 0.5528                 1.7373
 IR Inten    --     3.0713                21.1355                22.5939

                    55                     56                     57
                     A                      A                      A
 Frequencies --   913.0028               916.2825               937.0340
 Red. masses --     5.5813                 1.4470                 6.4885
 Frc consts  --     2.7411                 0.7158                 3.3567
 IR Inten    --     3.3644                 0.4050                40.1352

                    58                     59                     60
                     A                      A                      A
 Frequencies --   976.4392               978.3043               987.2197
 Red. masses --     1.5593                 1.4758                 7.9786
 Frc consts  --     0.8759                 0.8322                 4.5815
 IR Inten    --     1.3100                 0.1670                 6.1865

                    61                     62                     63
                     A                      A                      A
 Frequencies --  1006.1202              1022.4247              1036.3139
 Red. masses --    13.5769                 3.5383                 1.4715
 Frc consts  --     8.0975                 2.1793                 0.9311
 IR Inten    --    51.8258                 8.6892                 0.0011

                    64                     65                     66
                     A                      A                      A
 Frequencies --  1038.8141              1041.8123              1119.1314
 Red. masses --     3.5133                 6.7285                 1.1765
 Frc consts  --     2.2338                 4.3027                 0.8682
 IR Inten    --    52.0376                12.2067                11.6592

                    67                     68                     69
                     A                      A                      A
 Frequencies --  1165.5213              1177.1664              1188.8536
 Red. masses --     3.7533                 3.1322                 1.7172
 Frc consts  --     3.0040                 2.5573                 1.4300
 IR Inten    --    22.0388                 7.5608                 5.9198

                    70                     71                     72
                     A                      A                      A
 Frequencies --  1199.4127              1205.0904              1228.6166
 Red. masses --     4.0956                 9.4460                 3.2119
 Frc consts  --     3.4714                 8.0824                 2.8566
 IR Inten    --    48.0674                 4.4719                39.3072

                    73                     74                     75
                     A                      A                      A
 Frequencies --  1263.4359              1289.8931              1319.3094
 Red. masses --     2.5241                 3.0137                 2.0159
 Frc consts  --     2.3739                 2.9543                 2.0674
 IR Inten    --     8.4006                 3.9969                25.5522

                    76                     77                     78
                     A                      A                      A
 Frequencies --  1333.6870              1342.4611              1360.4359
 Red. masses --     3.3448                 3.0446                 4.1062
 Frc consts  --     3.5053                 3.2329                 4.4776
 IR Inten    --    28.8728                11.3557                35.6277

                    79                     80                     81
                     A                      A                      A
 Frequencies --  1364.5182              1388.6311              1405.5280
 Red. masses --     4.9817                 2.7301                 1.9367
 Frc consts  --     5.4650                 3.1017                 2.2542
 IR Inten    --    11.0815                 1.7080                 3.9507

                    82                     83                     84
                     A                      A                      A
 Frequencies --  1424.7191              1445.0972              1456.5019
 Red. masses --     1.5335                 4.1673                 2.5679
 Frc consts  --     1.8339                 5.1274                 3.2096
 IR Inten    --    23.7538               429.1595               730.8617

                    85                     86                     87
                     A                      A                      A
 Frequencies --  1461.2172              1489.9895              1533.8151
 Red. masses --     6.3697                 9.8358                 6.9391
 Frc consts  --     8.0130                12.8655                 9.6183
 IR Inten    --   375.9938               316.2813                14.6089

                    88                     89                     90
                     A                      A                      A
 Frequencies --  1542.8819              1546.3094              1557.8097
 Red. masses --     8.4655                 6.8969                 7.4169
 Frc consts  --    11.8732                 9.7163                10.6048
 IR Inten    --   118.6930               131.0995                56.4415

                    91                     92                     93
                     A                      A                      A
 Frequencies --  1568.7636              1582.2839              1606.1781
 Red. masses --     7.7115                 7.6846                 5.5336
 Frc consts  --    11.1816                11.3355                 8.4110
 IR Inten    --   117.2522                27.7987               757.3441

                    94                     95                     96
                     A                      A                      A
 Frequencies --  1613.2193              3161.4104              3177.1092
 Red. masses --     6.2773                 1.0883                 1.0943
 Frc consts  --     9.6252                 6.4087                 6.5082
 IR Inten    --     1.3881                 7.5240                49.5584

                    97                     98                     99
                     A                      A                      A
 Frequencies --  3187.4795              3190.5477              3240.6833
 Red. masses --     1.0902                 1.0941                 1.0922
 Frc consts  --     6.5260                 6.5620                 6.7580
 IR Inten    --    22.4219                38.8117                13.6292

                   100                    101                    102
                     A                      A                      A
 Frequencies --  3245.8416              3264.1390              3275.1276
 Red. masses --     1.0867                 1.1008                 1.0942
 Frc consts  --     6.7453                 6.9104                 6.9151
 IR Inten    --     4.3686                 0.6835                13.6201

 - Thermochemistry -
 -------------------
 Temperature   298.150 Kelvin.  Pressure   1.00000 Atm.
 Atom     1 has atomic number  6 and mass  12.00000

 Molecular mass:   483.91378 amu.
 Principal axes and moments of inertia in atomic units:
                           1         2         3
     Eigenvalues --  7373.26817********************
           X            1.00000  -0.00131  -0.00157
           Y            0.00132   0.99998   0.00532
           Z            0.00157  -0.00532   0.99998
 This molecule is an asymmetric top.
 Rotational symmetry number  1.
 Warning -- assumption of classical behavior for rotation
           may cause significant error
 Rotational temperatures (Kelvin)      0.01175     0.00284     0.00235
 Rotational constants (GHZ):           0.24477     0.05928     0.04892
 Zero-point vibrational energy     605111.7 (Joules/Mol)
                                  144.62518 (Kcal/Mol)
 Warning -- explicit consideration of  36 degrees of freedom as
           vibrations may cause significant error
 Vibrational temperatures:     22.88    35.62    47.86    54.27    75.71
          (Kelvin)            100.01   107.05   123.95   163.49   201.52
                              206.21   231.51   271.85   286.34   312.07
                              326.91   362.29   388.82   426.03   510.53
                              515.07   538.96   551.59   615.21   631.30
                              664.69   679.54   686.31   700.27   714.01
                              732.22   762.80   805.18   847.45   884.84
                              885.99   898.21   931.29   934.91   953.26
                              979.01  1008.46  1014.56  1064.65  1090.46
                             1115.01  1128.91  1155.94  1164.33  1209.74
                             1218.53  1221.65  1264.11  1268.63  1313.61
                             1318.32  1348.18  1404.88  1407.56  1420.39
                             1447.58  1471.04  1491.02  1494.62  1498.93
                             1610.18  1676.92  1693.68  1710.49  1725.69
                             1733.85  1767.70  1817.80  1855.87  1898.19
                             1918.88  1931.50  1957.36  1963.23  1997.93
                             2022.24  2049.85  2079.17  2095.58  2102.36
                             2143.76  2206.82  2219.86  2224.79  2241.34
                             2257.10  2276.55  2310.93  2321.06  4548.56
                             4571.15  4586.07  4590.48  4662.61  4670.04
                             4696.36  4712.17

 Zero-point correction=                           0.230475 (Hartree/Particle)
 Thermal correction to Energy=                    0.252841
 Thermal correction to Enthalpy=                  0.253785
 Thermal correction to Gibbs Free Energy=         0.174841
 Sum of electronic and zero-point Energies=          -4612.996043
 Sum of electronic and thermal Energies=             -4612.973677
 Sum of electronic and thermal Enthalpies=           -4612.972733
 Sum of electronic and thermal Free Energies=        -4613.051677

                     E (Thermal)             CV                S
                      KCal/Mol        Cal/Mol-Kelvin    Cal/Mol-Kelvin
 Total                  158.660             85.043            166.152
 Electronic               0.000              0.000              0.000
 Translational            0.889              2.981             44.418
 Rotational               0.889              2.981             37.358
 Vibrational            156.882             79.081             84.376
 Vibration     1          0.593              1.986              7.090
 Vibration     2          0.593              1.985              6.210
 Vibration     3          0.594              1.983              5.625
 Vibration     4          0.594              1.982              5.375
 Vibration     5          0.596              1.977              4.716
 Vibration     6          0.598              1.969              4.167
 Vibration     7          0.599              1.966              4.033
 Vibration     8          0.601              1.959              3.746
 Vibration     9          0.607              1.938              3.206
 Vibration    10          0.615              1.913              2.803
 Vibration    11          0.616              1.910              2.759
 Vibration    12          0.622              1.890              2.539
 Vibration    13          0.633              1.855              2.238
 Vibration    14          0.637              1.841              2.142
 Vibration    15          0.646              1.815              1.985
 Vibration    16          0.651              1.800              1.901
 Vibration    17          0.664              1.760              1.718
 Vibration    18          0.674              1.728              1.595
 Vibration    19          0.690              1.681              1.439
 Vibration    20          0.731              1.565              1.145
 Vibration    21          0.733              1.559              1.131
 Vibration    22          0.746              1.524              1.061
 Vibration    23          0.753              1.506              1.026
 Vibration    24          0.789              1.410              0.867
 Vibration    25          0.799              1.386              0.830
 Vibration    26          0.820              1.334              0.760
 Vibration    27          0.829              1.312              0.731
 Vibration    28          0.834              1.301              0.718
 Vibration    29          0.843              1.280              0.692
 Vibration    30          0.852              1.258              0.668
 Vibration    31          0.864              1.230              0.636
 Vibration    32          0.885              1.183              0.587
 Vibration    33          0.915              1.119              0.525
 Vibration    34          0.946              1.055              0.469
 Vibration    35          0.974              1.000              0.425
 Vibration    36          0.975              0.998              0.423

 Normal termination of Gaussian 09 at Sun Dec 29 22:30:15 2013.
