 Gaussian 09, Revision C.01,
 Gaussian 09:  EM64L-G09RevC.01 23-Sep-2011

 --------------------------------------------
 #B3LYP/6-31++G(d,p) opt scf=direct freq test
 --------------------------------------------

 Geom opt of No.75 candidate from the CEPDB database with SMILE code of
  [SiH2]1C=c2ccc3c(c4ccc5cc(-c6ncncn6)c6nsnc6c5c4c4=C[SiH2]C=c34)c2=C1,
  HPC, 20131227, Shuo Dai, Gaussian09
 ----------------------------------------------------------------------
 Charge =  0 Multiplicity = 1

 SCF Done:  E(RB3LYP) =  -2212.17231195     A.U. after   25 cycles
 SCF Done:  E(RB3LYP) =  -2212.25267609     A.U. after   19 cycles
 SCF Done:  E(RB3LYP) =  -2212.33557914     A.U. after   24 cycles
 SCF Done:  E(RB3LYP) =  -2212.39106754     A.U. after   23 cycles
 SCF Done:  E(RB3LYP) =  -2212.44225810     A.U. after   19 cycles
 SCF Done:  E(RB3LYP) =  -2212.48075627     A.U. after   18 cycles
 SCF Done:  E(RB3LYP) =  -2212.50662969     A.U. after   19 cycles
 SCF Done:  E(RB3LYP) =  -2212.51705444     A.U. after   24 cycles
 SCF Done:  E(RB3LYP) =  -2212.52214437     A.U. after   17 cycles
 SCF Done:  E(RB3LYP) =  -2212.52572781     A.U. after   19 cycles
 SCF Done:  E(RB3LYP) =  -2212.57587233     A.U. after   14 cycles
 SCF Done:  E(RB3LYP) =  -2212.57606824     A.U. after   14 cycles
 SCF Done:  E(RB3LYP) =  -2212.57622049     A.U. after   15 cycles
 SCF Done:  E(RB3LYP) =  -2212.57629079     A.U. after   13 cycles
 SCF Done:  E(RB3LYP) =  -2212.57631233     A.U. after   13 cycles
 SCF Done:  E(RB3LYP) =  -2212.57637419     A.U. after   13 cycles
 SCF Done:  E(RB3LYP) =  -2212.57637789     A.U. after   11 cycles
 SCF Done:  E(RB3LYP) =  -2212.57632522     A.U. after   11 cycles
 SCF Done:  E(RB3LYP) =  -2212.57632565     A.U. after   11 cycles
 Optimization completed.
    -- Stationary point found.
 Normal termination of Gaussian 09 at Mon Dec 30 03:03:58 2013.

 ----------------------------------------------------------------------
 #N Geom=AllCheck Guess=TCheck SCRF=Check Test GenChk RB3LYP/6-31++G(d,
 p) Freq
 ----------------------------------------------------------------------

 Geom opt of No.75 candidate from the CEPDB database with SMILE code of
  [SiH2]1C=c2ccc3c(c4ccc5cc(-c6ncncn6)c6nsnc6c5c4c4=C[SiH2]C=c34)c2=C1,
  HPC, 20131227, Shuo Dai, Gaussian09
 ----------------------------------------------------------------------
 Charge =  0 Multiplicity = 1

                         Standard orientation:
 ---------------------------------------------------------------------
 Center     Atomic      Atomic             Coordinates (Angstroms)
 Number     Number       Type             X           Y           Z
 ---------------------------------------------------------------------
      1         14           0       -4.776307   -3.593198   -1.214208
      2          1           0       -4.315921   -2.998237   -2.485321
      3          1           0       -5.017069   -5.054854   -1.255188
      4          6           0       -5.781549   -2.588480    0.005233
      5          6           0       -5.392917   -1.136623   -0.066126
      6          6           0       -5.864360    0.120051   -0.416729
      7          6           0       -4.936384    1.164436   -0.322208
      8          6           0       -3.595701    0.966723    0.060678
      9          6           0       -3.095622   -0.343439    0.335921
     10          6           0       -1.654542   -0.586081    0.531134
     11          6           0       -1.191832   -1.893892    0.807161
     12          6           0        0.154374   -2.175080    0.864525
     13          6           0        1.104651   -1.193358    0.509235
     14          6           0        2.495813   -1.553429    0.488822
     15          6           0        3.497822   -0.716706    0.078394
     16          6           0        4.907974   -1.146814    0.174213
     17          7           0        5.868813   -0.210062    0.251260
     18          6           0        7.112752   -0.679759    0.345877
     19          7           0        7.470592   -1.968924    0.377439
     20          6           0        6.433503   -2.814097    0.318824
     21          7           0        5.150790   -2.474191    0.215493
     22          6           0        3.088155    0.558781   -0.466677
     23          7           0        3.872690    1.398523   -1.138768
     24         16           0        2.909939    2.617080   -1.682805
     25          7           0        1.468700    2.108099   -1.077709
     26          6           0        1.689075    0.971945   -0.419060
     27          6           0        0.662093    0.123576    0.183243
     28          6           0       -0.716215    0.462950    0.359044
     29          6           0       -1.223845    1.846497    0.477003
     30          6           0       -0.502146    2.914383    0.906611
     31         14           0       -1.604335    4.421381    0.899773
     32          1           0       -1.779163    5.068536    2.228815
     33          1           0       -1.159064    5.464913   -0.063239
     34          6           0       -3.080982    3.413744    0.380629
     35          6           0       -2.694260    2.113409    0.261803
     36          6           0       -4.057739   -1.361539    0.299719
     37          6           0       -4.253774   -2.856552    0.428171
     38          1           0       -6.635664   -2.965598    0.562353
     39          1           0       -6.888934    0.307201   -0.724144
     40          1           0       -5.262198    2.172114   -0.556214
     41          1           0       -1.904845   -2.684835    0.993748
     42          1           0        0.497013   -3.170555    1.131389
     43          1           0        2.764309   -2.546661    0.833897
     44          1           0        7.911549    0.056290    0.406851
     45          1           0        6.660540   -3.877639    0.353604
     46          1           0        0.551365    2.845693    1.137357
     47          1           0       -4.118806    3.716707    0.311444
     48          1           0       -3.980321   -3.438932    1.304990
 ---------------------------------------------------------------------

 SCF Done:  E(RB3LYP) =  -2212.57632565     A.U. after    2 cycles

 The electronic state is 1-A.
 Alpha  occ. eigenvalues --  -88.97605 -66.16070 -66.12779 -14.37517 -14.37494
 Alpha  occ. eigenvalues --  -14.36289 -14.36069 -14.35856 -10.29617 -10.28353
 Alpha  occ. eigenvalues --  -10.28179 -10.25753 -10.25653 -10.23384 -10.22870
 Alpha  occ. eigenvalues --  -10.22857 -10.22786 -10.22672 -10.22480 -10.22040
 Alpha  occ. eigenvalues --  -10.21748 -10.21707 -10.21629 -10.21504 -10.21439
 Alpha  occ. eigenvalues --  -10.21407 -10.21351 -10.21222 -10.21147 -10.20663
 Alpha  occ. eigenvalues --  -10.20417 -10.17966 -10.17641  -8.02937  -5.99514
 Alpha  occ. eigenvalues --   -5.98924  -5.98659  -5.30883  -5.27608  -3.66766
 Alpha  occ. eigenvalues --   -3.66750  -3.66667  -3.63478  -3.63447  -3.63439
 Alpha  occ. eigenvalues --   -1.03789  -1.02463  -0.92203  -0.91477  -0.91222
 Alpha  occ. eigenvalues --   -0.90151  -0.89240  -0.86572  -0.83901  -0.82194
 Alpha  occ. eigenvalues --   -0.79473  -0.78968  -0.75958  -0.75426  -0.72634
 Alpha  occ. eigenvalues --   -0.69890  -0.69678  -0.69491  -0.67246  -0.65044
 Alpha  occ. eigenvalues --   -0.64339  -0.62808  -0.62105  -0.60284  -0.58839
 Alpha  occ. eigenvalues --   -0.56652  -0.56363  -0.55986  -0.54562  -0.53333
 Alpha  occ. eigenvalues --   -0.53041  -0.52231  -0.51567  -0.50431  -0.48851
 Alpha  occ. eigenvalues --   -0.47725  -0.47632  -0.46768  -0.46513  -0.45828
 Alpha  occ. eigenvalues --   -0.45059  -0.44482  -0.44029  -0.43707  -0.42959
 Alpha  occ. eigenvalues --   -0.41991  -0.41724  -0.41229  -0.39767  -0.39240
 Alpha  occ. eigenvalues --   -0.39007  -0.38568  -0.38364  -0.37801  -0.37342
 Alpha  occ. eigenvalues --   -0.36710  -0.36472  -0.35782  -0.35003  -0.33968
 Alpha  occ. eigenvalues --   -0.33755  -0.33192  -0.32856  -0.32561  -0.31955
 Alpha  occ. eigenvalues --   -0.31502  -0.31084  -0.30101  -0.29853  -0.29023
 Alpha  occ. eigenvalues --   -0.28336  -0.27229  -0.26939  -0.25650  -0.24239
 Alpha  occ. eigenvalues --   -0.22745  -0.20622
 Alpha virt. eigenvalues --   -0.10200  -0.09214  -0.06450  -0.06005  -0.04703
 Alpha virt. eigenvalues --   -0.03753  -0.02697  -0.01201  -0.00693  -0.00464
 Alpha virt. eigenvalues --   -0.00155  -0.00098   0.00186   0.00597   0.00772

 Mulliken atomic charges:
              1
     1  Si   0.565875
     2  H   -0.051970
     3  H   -0.073103
     4  C   -0.331766
     5  C    0.312610
     6  C   -0.425256
     7  C   -0.535307
     8  C    0.414266
     9  C   -0.175218
    10  C    0.268117
    11  C   -0.308799
    12  C   -0.386930
    13  C    0.059353
    14  C   -0.481364
    15  C    0.386882
    16  C   -0.063834
    17  N   -0.108034
    18  C    0.215418
    19  N   -0.245025
    20  C    0.210025
    21  N   -0.125340
    22  C   -0.070837
    23  N   -0.341759
    24  S    0.949919
    25  N   -0.374257
    26  C   -0.189382
    27  C   -0.088026
    28  C   -0.254241
    29  C    0.376558
    30  C   -0.586512
    31  Si   0.919361
    32  H   -0.115170
    33  H   -0.105583
    34  C   -0.252526
    35  C    0.141090
    36  C   -0.012566
    37  C   -0.443214
    38  H    0.176732
    39  H    0.132324
    40  H    0.038256
    41  H   -0.034369
    42  H    0.158944
    43  H    0.126651
    44  H    0.161343
    45  H    0.157691
    46  H    0.105334
    47  H    0.138056
    48  H    0.165582
 Sum of Mulliken atomic charges =  -0.00000

 Dipole moment (field-independent basis, Debye):
    X=             -3.9596    Y=             -3.0804    Z=              0.2951  Tot=              5.0253
 Quadrupole moment (field-independent basis, Debye-Ang):
   XX=           -207.5357   YY=           -196.9822   ZZ=           -212.7304
   XY=              9.8259   XZ=              4.4396   YZ=             -1.6594

  Exact polarizability: 644.625  18.165 496.698   1.085  -6.890 233.825
 Approx polarizability: 937.552  51.960 859.208 -10.380 -56.588 407.854

                     1                      2                      3
                     A                      A                      A
 Frequencies --    21.9332                24.7282                40.5237
 Red. masses --     8.3969                 6.8827                 5.9808
 Frc consts  --     0.0024                 0.0025                 0.0058
 IR Inten    --     0.0119                 0.0587                 0.4186

                     4                      5                      6
                     A                      A                      A
 Frequencies --    46.2536                57.4681                70.4016
 Red. masses --     5.6468                 7.0244                 6.4730
 Frc consts  --     0.0071                 0.0137                 0.0189
 IR Inten    --     0.0770                 0.1114                 0.2652

                     7                      8                      9
                     A                      A                      A
 Frequencies --    94.9387               105.6714               112.7034
 Red. masses --     6.8032                 7.9971                 4.6356
 Frc consts  --     0.0361                 0.0526                 0.0347
 IR Inten    --     0.2800                 0.4500                 0.0711

                    10                     11                     12
                     A                      A                      A
 Frequencies --   115.5566               135.8038               173.1789
 Red. masses --     5.9425                 4.5532                 6.8917
 Frc consts  --     0.0468                 0.0495                 0.1218
 IR Inten    --     0.0543                 1.4930                 2.0918

                    13                     14                     15
                     A                      A                      A
 Frequencies --   178.2393               183.9911               203.3749
 Red. masses --     6.7429                 5.3813                 9.8066
 Frc consts  --     0.1262                 0.1073                 0.2390
 IR Inten    --     1.1196                 0.4746                 0.5789

                    16                     17                     18
                     A                      A                      A
 Frequencies --   221.4058               242.5537               258.9547
 Red. masses --     3.8843                 5.2608                 5.6345
 Frc consts  --     0.1122                 0.1824                 0.2226
 IR Inten    --     0.6639                 1.1795                 0.6513

                    19                     20                     21
                     A                      A                      A
 Frequencies --   296.5245               318.5238               326.7631
 Red. masses --     6.9276                 4.7800                 5.0645
 Frc consts  --     0.3589                 0.2857                 0.3186
 IR Inten    --     1.5532                 0.9952                 3.0113

                    22                     23                     24
                     A                      A                      A
 Frequencies --   336.9133               357.7588               365.4418
 Red. masses --     5.5977                 3.4835                 5.3759
 Frc consts  --     0.3744                 0.2627                 0.4230
 IR Inten    --     1.1390                 0.0358                 3.2041

                    25                     26                     27
                     A                      A                      A
 Frequencies --   386.0086               395.1884               400.5640
 Red. masses --     6.6206                 4.8867                 6.1136
 Frc consts  --     0.5812                 0.4496                 0.5779
 IR Inten    --     1.4207                 6.6348                 2.4333

                    28                     29                     30
                     A                      A                      A
 Frequencies --   443.2390               447.6690               478.9565
 Red. masses --     5.5137                 4.1225                 4.5663
 Frc consts  --     0.6382                 0.4868                 0.6172
 IR Inten    --    13.2493                 2.9153                 2.9693

                    31                     32                     33
                     A                      A                      A
 Frequencies --   489.1578               509.6707               515.1087
 Red. masses --     3.8345                 3.9391                 4.2337
 Frc consts  --     0.5406                 0.6029                 0.6619
 IR Inten    --     4.2309                 2.2519                 6.2063

                    34                     35                     36
                     A                      A                      A
 Frequencies --   521.4214               543.9810               553.6819
 Red. masses --     3.8720                 4.5934                 2.5651
 Frc consts  --     0.6202                 0.8008                 0.4633
 IR Inten    --     3.0521                10.1981                 8.0025

                    37                     38                     39
                     A                      A                      A
 Frequencies --   566.0708               573.3449               597.6656
 Red. masses --     1.9454                 2.0621                 5.8485
 Frc consts  --     0.3673                 0.3994                 1.2309
 IR Inten    --     3.4446                 4.9499                 1.3269

                    40                     41                     42
                     A                      A                      A
 Frequencies --   605.5627               618.9741               622.8192
 Red. masses --     4.4055                 2.1257                 2.7267
 Frc consts  --     0.9518                 0.4798                 0.6232
 IR Inten    --     9.1050                 0.4288                19.7856

                    43                     44                     45
                     A                      A                      A
 Frequencies --   636.9274               639.4696               650.5893
 Red. masses --     1.9191                 2.2040                 4.1449
 Frc consts  --     0.4587                 0.5310                 1.0337
 IR Inten    --     2.5582                 5.8241                 4.9874

                    46                     47                     48
                     A                      A                      A
 Frequencies --   656.0919               662.8821               673.2102
 Red. masses --     3.2583                 2.4362                 2.6250
 Frc consts  --     0.8264                 0.6307                 0.7009
 IR Inten    --     5.0549                22.2359                19.0224

                    49                     50                     51
                     A                      A                      A
 Frequencies --   687.5823               708.1549               710.9442
 Red. masses --     6.4858                 7.6102                 3.8871
 Frc consts  --     1.8066                 2.2485                 1.1576
 IR Inten    --    37.4900                 8.2212                 7.8284

                    52                     53                     54
                     A                      A                      A
 Frequencies --   724.7680               727.8883               733.4019
 Red. masses --     4.2064                 2.0821                 2.1669
 Frc consts  --     1.3018                 0.6499                 0.6867
 IR Inten    --    11.7767                33.2507                 7.6773

                    55                     56                     57
                     A                      A                      A
 Frequencies --   745.0208               761.9136               778.9875
 Red. masses --     6.2058                 3.7904                 2.5347
 Frc consts  --     2.0295                 1.2964                 0.9062
 IR Inten    --    19.5247                 9.9208                 5.7323

                    58                     59                     60
                     A                      A                      A
 Frequencies --   790.6434               793.3712               806.5610
 Red. masses --     4.6697                 3.4147                 4.5630
 Frc consts  --     1.7199                 1.2664                 1.7489
 IR Inten    --     3.0934                11.8403                12.9131

                    61                     62                     63
                     A                      A                      A
 Frequencies --   812.1064               816.8636               830.1849
 Red. masses --     3.5635                 2.0928                 1.8836
 Frc consts  --     1.3847                 0.8228                 0.7649
 IR Inten    --    53.7735                20.7380                 9.2951

                    64                     65                     66
                     A                      A                      A
 Frequencies --   839.4613               842.5146               843.3730
 Red. masses --     6.3903                 2.3741                 4.6770
 Frc consts  --     2.6532                 0.9929                 1.9600
 IR Inten    --    22.9659                11.7685                 7.3253

                    67                     68                     69
                     A                      A                      A
 Frequencies --   849.7420               859.5527               865.1910
 Red. masses --     1.6274                 4.4121                 1.9187
 Frc consts  --     0.6924                 1.9206                 0.8462
 IR Inten    --    21.0996                 6.8966                41.3801

                    70                     71                     72
                     A                      A                      A
 Frequencies --   883.1624               887.8697               905.3614
 Red. masses --     2.2345                 1.5986                 3.2679
 Frc consts  --     1.0269                 0.7425                 1.5782
 IR Inten    --    26.0926                63.2754                51.4859

                    73                     74                     75
                     A                      A                      A
 Frequencies --   931.0163               945.9089               958.1174
 Red. masses --     4.2391                 1.4697                 1.4307
 Frc consts  --     2.1649                 0.7748                 0.7738
 IR Inten    --    59.9007                14.1841                12.3095

                    76                     77                     78
                     A                      A                      A
 Frequencies --   959.1465               962.4266               970.4840
 Red. masses --     1.1111                 1.5549                 2.9361
 Frc consts  --     0.6022                 0.8486                 1.6293
 IR Inten    --   170.2461                59.4297                16.0850

                    79                     80                     81
                     A                      A                      A
 Frequencies --   972.6892               978.1556              1008.1650
 Red. masses --     1.4290                 1.5514                 3.3194
 Frc consts  --     0.7966                 0.8745                 1.9878
 IR Inten    --    11.0980                 0.4976                 8.9873

                    82                     83                     84
                     A                      A                      A
 Frequencies --  1015.0585              1026.2946              1036.4719
 Red. masses --     3.9190                 3.1205                 1.4779
 Frc consts  --     2.3791                 1.9365                 0.9354
 IR Inten    --    11.0807                14.6087                 0.1791

                    85                     86                     87
                     A                      A                      A
 Frequencies --  1077.8257              1098.8629              1129.3176
 Red. masses --     3.4279                 3.3221                 2.2435
 Frc consts  --     2.3463                 2.3635                 1.6858
 IR Inten    --     3.0511                 9.9151                 7.1988

                    88                     89                     90
                     A                      A                      A
 Frequencies --  1150.3612              1155.7720              1177.2877
 Red. masses --     1.6341                 1.4648                 1.7133
 Frc consts  --     1.2741                 1.1529                 1.3991
 IR Inten    --    13.4642                 8.1114                 9.8914

                    91                     92                     93
                     A                      A                      A
 Frequencies --  1179.4021              1198.2556              1203.8581
 Red. masses --     3.0764                 5.5166                 1.5954
 Frc consts  --     2.5212                 4.6668                 1.3623
 IR Inten    --     1.6222                 4.7897                 3.6989

                    94                     95                     96
                     A                      A                      A
 Frequencies --  1214.7369              1219.7963              1240.3978
 Red. masses --     1.4862                 2.2430                 3.2134
 Frc consts  --     1.2921                 1.9664                 2.9130
 IR Inten    --    14.1548                 4.2385                32.3803

                    97                     98                     99
                     A                      A                      A
 Frequencies --  1250.1853              1264.9705              1278.1238
 Red. masses --     2.6620                 2.8329                 3.8099
 Frc consts  --     2.4514                 2.6708                 3.6669
 IR Inten    --    48.5688                13.8857                18.6541

                   100                    101                    102
                     A                      A                      A
 Frequencies --  1290.3894              1316.0148              1323.4129
 Red. masses --     4.1328                 4.1446                 4.0928
 Frc consts  --     4.0545                 4.2291                 4.2234
 IR Inten    --    53.0997                66.1329                10.6557

                   103                    104                    105
                     A                      A                      A
 Frequencies --  1344.7656              1357.6008              1367.3290
 Red. masses --     3.4662                 4.0169                 5.2530
 Frc consts  --     3.6931                 4.3620                 5.7863
 IR Inten    --    75.1307                 1.0742                 8.4673

                   106                    107                    108
                     A                      A                      A
 Frequencies --  1387.5874              1423.9416              1426.9853
 Red. masses --     5.4490                 1.5596                 3.8708
 Frc consts  --     6.1815                 1.8632                 4.6440
 IR Inten    --    18.8420                35.7410                21.6164

                   109                    110                    111
                     A                      A                      A
 Frequencies --  1439.0190              1444.9041              1467.8277
 Red. masses --     3.9895                 3.7763                 3.5863
 Frc consts  --     4.8675                 4.6450                 4.5524
 IR Inten    --    57.2251                74.5013               235.9912

                   112                    113                    114
                     A                      A                      A
 Frequencies --  1479.2013              1490.5571              1538.0305
 Red. masses --     3.9594                 4.3012                 9.4718
 Frc consts  --     5.1042                 5.6304                13.2011
 IR Inten    --   135.3945                21.3069                45.6549

                   115                    116                    117
                     A                      A                      A
 Frequencies --  1545.3926              1559.8796              1571.9649
 Red. masses --     8.4002                 5.9815                 6.4927
 Frc consts  --    11.8200                 8.5752                 9.4529
 IR Inten    --     7.8496               226.2393                90.8759

                   118                    119                    120
                     A                      A                      A
 Frequencies --  1598.8539              1607.7782              1612.0282
 Red. masses --     6.9127                 6.5745                 7.6391
 Frc consts  --    10.4116                10.0130                11.6960
 IR Inten    --   308.1932               480.9519                21.4332

                   121                    122                    123
                     A                      A                      A
 Frequencies --  1624.4339              1640.3930              1645.5692
 Red. masses --     6.5787                 7.6312                 6.9839
 Frc consts  --    10.2282                12.0986                11.1425
 IR Inten    --     0.4203                16.8742                 4.8532

                   124                    125                    126
                     A                      A                      A
 Frequencies --  2215.0686              2220.7335              2241.8093
 Red. masses --     1.0491                 1.0318                 1.0313
 Frc consts  --     3.0329                 2.9980                 3.0538
 IR Inten    --   135.2170               223.8378               215.6991

                   127                    128                    129
                     A                      A                      A
 Frequencies --  2282.5956              3166.3560              3176.4380
 Red. masses --     1.0541                 1.0890                 1.0901
 Frc consts  --     3.2359                 6.4327                 6.4804
 IR Inten    --    82.7637                 5.3440                12.5996

                   130                    131                    132
                     A                      A                      A
 Frequencies --  3182.4868              3186.9539              3192.1087
 Red. masses --     1.0906                 1.0934                 1.0906
 Frc consts  --     6.5077                 6.5429                 6.5473
 IR Inten    --    24.8141                32.0586                 6.4479

                   133                    134                    135
                     A                      A                      A
 Frequencies --  3192.6218              3209.6570              3210.0418
 Red. masses --     1.0886                 1.0938                 1.0903
 Frc consts  --     6.5378                 6.6389                 6.6193
 IR Inten    --     6.5678                 9.7366                 0.3233

                   136                    137                    138
                     A                      A                      A
 Frequencies --  3222.1668              3252.8948              3254.3141
 Red. masses --     1.0899                 1.0912                 1.0908
 Frc consts  --     6.6672                 6.8029                 6.8063
 IR Inten    --    10.1320                 2.2458                 3.3574

 - Thermochemistry -
 -------------------
 Temperature   298.150 Kelvin.  Pressure   1.00000 Atm.
 Atom     1 has atomic number 14 and mass  27.97693

 Molecular mass:   473.05867 amu.
 Principal axes and moments of inertia in atomic units:
                           1         2         3
     Eigenvalues --  9564.85283********************
           X            1.00000   0.00018   0.00248
           Y           -0.00019   0.99998   0.00551
           Z           -0.00248  -0.00551   0.99998
 This molecule is an asymmetric top.
 Rotational symmetry number  1.
 Warning -- assumption of classical behavior for rotation
           may cause significant error
 Rotational temperatures (Kelvin)      0.00906     0.00317     0.00248
 Rotational constants (GHZ):           0.18868     0.06606     0.05165
 Zero-point vibrational energy     873248.1 (Joules/Mol)
                                  208.71129 (Kcal/Mol)
 Warning -- explicit consideration of  41 degrees of freedom as
           vibrations may cause significant error
 Vibrational temperatures:     31.56    35.58    58.30    66.55    82.68
          (Kelvin)            101.29   136.60   152.04   162.15   166.26
                              195.39   249.17   256.45   264.72   292.61
                              318.55   348.98   372.58   426.63   458.28
                              470.14   484.74   514.73   525.79   555.38
                              568.59   576.32   637.72   644.10   689.11
                              703.79   733.30   741.13   750.21   782.67
                              796.62   814.45   824.91   859.91   871.27
                              890.56   896.10   916.40   920.05   936.05
                              943.97   953.74   968.60   989.28  1018.88
                             1022.89  1042.78  1047.27  1055.20  1071.92
                             1096.22  1120.79  1137.56  1141.48  1160.46
                             1168.44  1175.28  1194.45  1207.80  1212.19
                             1213.42  1222.59  1236.70  1244.82  1270.67
                             1277.44  1302.61  1339.52  1360.95  1378.52
                             1380.00  1384.72  1396.31  1399.48  1407.35
                             1450.52  1460.44  1476.61  1491.25  1550.75
                             1581.02  1624.83  1655.11  1662.90  1693.85
                             1696.89  1724.02  1732.08  1747.73  1755.01
                             1784.65  1798.74  1820.01  1838.93  1856.58
                             1893.45  1904.09  1934.82  1953.28  1967.28
                             1996.43  2048.73  2053.11  2070.42  2078.89
                             2111.87  2128.24  2144.58  2212.88  2223.47
                             2244.32  2261.70  2300.39  2313.23  2319.35
                             2337.20  2360.16  2367.60  3186.99  3195.14
                             3225.46  3284.14  4555.67  4570.18  4578.88
                             4585.31  4592.73  4593.46  4617.97  4618.53
                             4635.97  4680.18  4682.23

 Zero-point correction=                           0.332603 (Hartree/Particle)
 Thermal correction to Energy=                    0.357766
 Thermal correction to Enthalpy=                  0.358710
 Thermal correction to Gibbs Free Energy=         0.276625
 Sum of electronic and zero-point Energies=          -2212.243723
 Sum of electronic and thermal Energies=             -2212.218559
 Sum of electronic and thermal Enthalpies=           -2212.217615
 Sum of electronic and thermal Free Energies=        -2212.299700

                     E (Thermal)             CV                S
                      KCal/Mol        Cal/Mol-Kelvin    Cal/Mol-Kelvin
 Total                  224.502            103.251            172.762
 Electronic               0.000              0.000              0.000
 Translational            0.889              2.981             44.350
 Rotational               0.889              2.981             37.455
 Vibrational            222.724             97.290             90.957
 Vibration     1          0.593              1.985              6.451
 Vibration     2          0.593              1.985              6.213
 Vibration     3          0.594              1.981              5.233
 Vibration     4          0.595              1.979              4.971
 Vibration     5          0.596              1.975              4.542
 Vibration     6          0.598              1.968              4.142
 Vibration     7          0.603              1.953              3.556
 Vibration     8          0.605              1.945              3.347
 Vibration     9          0.607              1.939              3.222
 Vibration    10          0.608              1.937              3.173
 Vibration    11          0.614              1.918              2.862
 Vibration    12          0.627              1.875              2.401
 Vibration    13          0.629              1.869              2.347
 Vibration    14          0.631              1.862              2.288
 Vibration    15          0.639              1.835              2.102
 Vibration    16          0.648              1.808              1.948
 Vibration    17          0.659              1.775              1.784
 Vibration    18          0.668              1.748              1.669
 Vibration    19          0.690              1.680              1.436
 Vibration    20          0.705              1.638              1.318
 Vibration    21          0.710              1.622              1.276
 Vibration    22          0.718              1.602              1.227
 Vibration    23          0.733              1.559              1.132
 Vibration    24          0.739              1.543              1.099
 Vibration    25          0.755              1.500              1.016
 Vibration    26          0.762              1.480              0.981
 Vibration    27          0.766              1.469              0.961
 Vibration    28          0.803              1.376              0.816
 Vibration    29          0.807              1.366              0.803
 Vibration    30          0.835              1.297              0.713
 Vibration    31          0.845              1.274              0.686
 Vibration    32          0.865              1.229              0.634
 Vibration    33          0.870              1.217              0.621
 Vibration    34          0.876              1.203              0.607
 Vibration    35          0.899              1.153              0.557
 Vibration    36          0.909              1.132              0.537
 Vibration    37          0.922              1.105              0.512
 Vibration    38          0.930              1.089              0.498
 Vibration    39          0.956              1.037              0.454
 Vibration    40          0.964              1.020              0.440
 Vibration    41          0.979              0.992              0.418

 Normal termination of Gaussian 09 at Mon Dec 30 06:18:54 2013.
