 Gaussian 09, Revision C.01,
 Gaussian 09:  EM64L-G09RevC.01 23-Sep-2011

 --------------------------------------------
 #B3LYP/6-31++G(d,p) opt scf=direct freq test
 --------------------------------------------

 Geom opt of No.54 candidate from the CEPDB database with SMILE code of
  c1occ2c1ccc1c3ccccc3c3c4oc(cc4ccc3c21)-c1cncc2nsnc12, HPC, 20131227,
 Shuo Dai, Gaussian09
 ----------------------------------------------------------------------
 Charge =  0 Multiplicity = 1

 SCF Done:  E(RB3LYP) =  -1748.97630830     A.U. after   25 cycles
 SCF Done:  E(RB3LYP) =  -1749.06507195     A.U. after   25 cycles
 SCF Done:  E(RB3LYP) =  -1749.16435229     A.U. after   24 cycles
 SCF Done:  E(RB3LYP) =  -1749.24844981     A.U. after   19 cycles
 SCF Done:  E(RB3LYP) =  -1749.32671318     A.U. after   19 cycles
 SCF Done:  E(RB3LYP) =  -1749.37874096     A.U. after   17 cycles
 SCF Done:  E(RB3LYP) =  -1749.41224076     A.U. after   18 cycles
 SCF Done:  E(RB3LYP) =  -1749.42477248     A.U. after   18 cycles
 SCF Done:  E(RB3LYP) =  -1749.43169411     A.U. after   16 cycles
 SCF Done:  E(RB3LYP) =  -1749.43552266     A.U. after   16 cycles
 SCF Done:  E(RB3LYP) =  -1749.47713905     A.U. after   16 cycles
 SCF Done:  E(RB3LYP) =  -1749.47722934     A.U. after   12 cycles
 SCF Done:  E(RB3LYP) =  -1749.47725010     A.U. after   12 cycles
 SCF Done:  E(RB3LYP) =  -1749.47726649     A.U. after   11 cycles
 SCF Done:  E(RB3LYP) =  -1749.47726920     A.U. after   11 cycles
 SCF Done:  E(RB3LYP) =  -1749.47727071     A.U. after   10 cycles
 SCF Done:  E(RB3LYP) =  -1749.47727146     A.U. after   11 cycles
 SCF Done:  E(RB3LYP) =  -1749.47727167     A.U. after   10 cycles
 SCF Done:  E(RB3LYP) =  -1749.47727175     A.U. after    9 cycles
 Optimization completed.
    -- Stationary point found.
 Normal termination of Gaussian 09 at Sun Dec 29 18:28:06 2013.

 ----------------------------------------------------------------------
 #N Geom=AllCheck Guess=TCheck SCRF=Check Test GenChk RB3LYP/6-31++G(d,
 p) Freq
 ----------------------------------------------------------------------

 Geom opt of No.54 candidate from the CEPDB database with SMILE code of
  c1occ2c1ccc1c3ccccc3c3c4oc(cc4ccc3c21)-c1cncc2nsnc12, HPC, 20131227,
 Shuo Dai, Gaussian09
 ----------------------------------------------------------------------
 Charge =  0 Multiplicity = 1

                         Standard orientation:
 ---------------------------------------------------------------------
 Center     Atomic      Atomic             Coordinates (Angstroms)
 Number     Number       Type             X           Y           Z
 ---------------------------------------------------------------------
      1          6           0       -5.500394   -2.232397    0.931663
      2          8           0       -5.751025   -3.321020    0.000402
      3          6           0       -5.500781   -2.232446   -0.931122
      4          6           0       -4.560439   -1.488191    0.000022
      5          6           0       -6.019749   -1.150094    0.000424
      6          6           0       -6.392657    0.266392    0.000491
      7          6           0       -5.413407    1.196374    0.000314
      8          6           0       -3.965328    0.893134    0.000038
      9          6           0       -2.982054    1.961345    0.000022
     10          6           0       -3.361816    3.329057    0.000266
     11          6           0       -2.427723    4.347463    0.000093
     12          6           0       -1.057536    4.036926   -0.000321
     13          6           0       -0.649504    2.715806   -0.000454
     14          6           0       -1.582388    1.647470   -0.000256
     15          6           0       -1.160692    0.257789   -0.000338
     16          6           0        0.173892   -0.209645   -0.000395
     17          8           0        1.305858    0.564631   -0.000222
     18          6           0        2.393091   -0.292007   -0.000313
     19          6           0        1.972923   -1.595410   -0.000521
     20          6           0        0.542065   -1.564140   -0.000575
     21          6           0       -0.458904   -2.561479   -0.000604
     22          6           0       -1.773644   -2.159325   -0.000453
     23          6           0       -2.145502   -0.779187   -0.000321
     24          6           0       -3.535489   -0.427335   -0.000151
     25          6           0        3.701155    0.327736   -0.000086
     26          6           0        3.870450    1.706357    0.000004
     27          7           0        5.067130    2.368830    0.000214
     28          6           0        6.188667    1.687212    0.000318
     29          6           0        6.178866    0.259596    0.000291
     30          7           0        7.248185   -0.547721    0.000460
     31         16           0        6.664769   -2.079874    0.000307
     32          7           0        5.047408   -1.773652    0.000041
     33          6           0        4.915226   -0.441089    0.000081
     34          1           0       -5.529515   -2.357648    2.005728
     35          1           0       -5.530955   -2.357722   -2.005151
     36          1           0       -7.437930    0.562975    0.000688
     37          1           0       -5.713194    2.236995    0.000407
     38          1           0       -4.409578    3.599969    0.000598
     39          1           0       -2.755902    5.382628    0.000300
     40          1           0       -0.316114    4.830331   -0.000567
     41          1           0        0.406671    2.493479   -0.000728
     42          1           0        2.618195   -2.460150   -0.000661
     43          1           0       -0.194775   -3.614230   -0.000768
     44          1           0       -2.567511   -2.898047   -0.000403
     45          1           0        2.996658    2.347954   -0.000062
     46          1           0        7.129947    2.230905    0.000527
 ---------------------------------------------------------------------

 SCF Done:  E(RB3LYP) =  -1749.47727175     A.U. after    2 cycles

 The electronic state is 1-A.
 Alpha  occ. eigenvalues --  -89.00383 -19.23669 -19.16144 -14.40327 -14.39931
 Alpha  occ. eigenvalues --  -14.36563 -10.27572 -10.27515 -10.27242 -10.27240
 Alpha  occ. eigenvalues --  -10.26860 -10.26765 -10.25808 -10.24969 -10.24619
 Alpha  occ. eigenvalues --  -10.22804 -10.22643 -10.22566 -10.22338 -10.22245
 Alpha  occ. eigenvalues --  -10.22110 -10.21909 -10.21804 -10.21787 -10.21728
 Alpha  occ. eigenvalues --  -10.21635 -10.21172 -10.21098 -10.20785 -10.20684
 Alpha  occ. eigenvalues --  -10.20553 -10.20385 -10.20243  -8.05700  -6.02251
 Alpha  occ. eigenvalues --   -6.01667  -6.01465  -1.13130  -1.09117  -1.04870
 Alpha  occ. eigenvalues --   -0.96754  -0.92142  -0.91123  -0.89045  -0.86895
 Alpha  occ. eigenvalues --   -0.84544  -0.83625  -0.82034  -0.80341  -0.78768
 Alpha  occ. eigenvalues --   -0.78311  -0.76309  -0.74505  -0.73355  -0.69391
 Alpha  occ. eigenvalues --   -0.68469  -0.66951  -0.66000  -0.65271  -0.64509
 Alpha  occ. eigenvalues --   -0.63328  -0.61855  -0.60175  -0.59750  -0.57537
 Alpha  occ. eigenvalues --   -0.55395  -0.54926  -0.54217  -0.54163  -0.52888
 Alpha  occ. eigenvalues --   -0.52639  -0.51106  -0.49709  -0.48736  -0.48458
 Alpha  occ. eigenvalues --   -0.48342  -0.47937  -0.47757  -0.47526  -0.46151
 Alpha  occ. eigenvalues --   -0.45922  -0.44538  -0.44044  -0.43513  -0.43010
 Alpha  occ. eigenvalues --   -0.42590  -0.41678  -0.41440  -0.40710  -0.40547
 Alpha  occ. eigenvalues --   -0.40427  -0.39121  -0.38895  -0.38372  -0.37927
 Alpha  occ. eigenvalues --   -0.37423  -0.36480  -0.35674  -0.35369  -0.34501
 Alpha  occ. eigenvalues --   -0.34019  -0.33431  -0.32934  -0.32237  -0.30640
 Alpha  occ. eigenvalues --   -0.29125  -0.28446  -0.28238  -0.26835  -0.25930
 Alpha  occ. eigenvalues --   -0.25290  -0.24498  -0.23769  -0.21046
 Alpha virt. eigenvalues --   -0.12207  -0.08292  -0.05621  -0.04080  -0.03026
 Alpha virt. eigenvalues --   -0.02880  -0.02349  -0.01136  -0.00572  -0.00041
 Alpha virt. eigenvalues --    0.00113   0.00391   0.01035   0.01427   0.01513

 Mulliken atomic charges:
              1
     1  C    0.203544
     2  O   -0.290398
     3  C    0.203928
     4  C   -0.887047
     5  C   -0.825141
     6  C   -0.497589
     7  C   -0.351278
     8  C    1.011542
     9  C    0.844039
    10  C   -0.496975
    11  C   -0.512461
    12  C   -0.190014
    13  C   -0.171905
    14  C    0.503811
    15  C   -0.232833
    16  C   -0.166059
    17  O   -0.299652
    18  C    0.427128
    19  C    0.081340
    20  C    0.520223
    21  C   -0.798917
    22  C   -0.675336
    23  C    0.875741
    24  C    0.779848
    25  C   -0.072874
    26  C   -0.514576
    27  N   -0.038672
    28  C   -0.127024
    29  C    0.245047
    30  N   -0.395042
    31  S    0.878846
    32  N   -0.481626
    33  C   -0.190275
    34  H    0.154044
    35  H    0.154056
    36  H    0.155608
    37  H    0.055934
    38  H    0.008845
    39  H    0.125523
    40  H    0.116055
    41  H   -0.064489
    42  H    0.200640
    43  H    0.111350
    44  H    0.072907
    45  H    0.364914
    46  H    0.185271
 Sum of Mulliken atomic charges =  -0.00000

 Dipole moment (field-independent basis, Debye):
    X=              0.5353    Y=              0.9430    Z=             -0.0004  Tot=              1.0843
 Quadrupole moment (field-independent basis, Debye-Ang):
   XX=           -192.5652   YY=           -193.3680   ZZ=           -194.6266
   XY=            -27.0443   XZ=              0.0005   YZ=              0.0027

  Exact polarizability: 671.047   2.898 433.491  -0.007   0.016 173.337
 Approx polarizability: 975.977  23.463 829.331  -0.011   0.034 289.710

                     1                      2                      3
                     A                      A                      A
 Frequencies --    19.2510                25.1453                39.1104
 Red. masses --     8.7008                 6.8609                 5.4765
 Frc consts  --     0.0019                 0.0026                 0.0049
 IR Inten    --     0.1766                 0.0238                 0.8025

                     4                      5                      6
                     A                      A                      A
 Frequencies --    51.2699                71.6649                84.6422
 Red. masses --     8.8954                 5.7793                 4.4134
 Frc consts  --     0.0138                 0.0175                 0.0186
 IR Inten    --     0.1949                 0.2393                 0.0046

                     7                      8                      9
                     A                      A                      A
 Frequencies --   100.5124               127.8480               132.6870
 Red. masses --     5.0652                10.2838                 8.8474
 Frc consts  --     0.0301                 0.0990                 0.0918
 IR Inten    --     2.2643                 0.2499                 0.0482

                    10                     11                     12
                     A                      A                      A
 Frequencies --   153.9680               177.4708               196.6166
 Red. masses --     7.3060                 4.5139                 6.3451
 Frc consts  --     0.1020                 0.0838                 0.1445
 IR Inten    --     0.3709                 0.3270                 0.1728

                    13                     14                     15
                     A                      A                      A
 Frequencies --   216.7422               232.6703               235.0588
 Red. masses --     5.6609                 6.1721                 4.0273
 Frc consts  --     0.1567                 0.1969                 0.1311
 IR Inten    --     1.3398                 0.8756                 0.0172

                    16                     17                     18
                     A                      A                      A
 Frequencies --   255.5845               283.0498               322.3463
 Red. masses --     5.0717                 8.4537                 8.0674
 Frc consts  --     0.1952                 0.3990                 0.4939
 IR Inten    --     0.0674                 0.2205                 3.9888

                    19                     20                     21
                     A                      A                      A
 Frequencies --   330.8516               346.6657               360.2801
 Red. masses --     5.4001                 4.3374                 8.3368
 Frc consts  --     0.3483                 0.3071                 0.6376
 IR Inten    --     0.4615                 0.5982                 0.4166

                    22                     23                     24
                     A                      A                      A
 Frequencies --   362.3986               399.7214               417.5756
 Red. masses --     3.8938                 7.9354                 6.5392
 Frc consts  --     0.3013                 0.7470                 0.6718
 IR Inten    --     1.3897                 7.0396                 0.4232

                    25                     26                     27
                     A                      A                      A
 Frequencies --   446.9411               454.3686               488.4448
 Red. masses --     7.2116                 3.4234                 7.2100
 Frc consts  --     0.8487                 0.4164                 1.0135
 IR Inten    --     1.0045                 0.0919                 4.5446

                    28                     29                     30
                     A                      A                      A
 Frequencies --   496.3012               509.3341               518.2018
 Red. masses --     7.6994                 4.3906                 7.4009
 Frc consts  --     1.1174                 0.6711                 1.1709
 IR Inten    --    16.8824                 0.0151                 2.5730

                    31                     32                     33
                     A                      A                      A
 Frequencies --   542.6247               552.7836               573.9952
 Red. masses --     4.4586                 9.0561                 6.4827
 Frc consts  --     0.7735                 1.6304                 1.2584
 IR Inten    --     0.6816                 0.8464                 2.0169

                    34                     35                     36
                     A                      A                      A
 Frequencies --   584.4340               586.3406               603.4746
 Red. masses --     6.3824                 4.5432                 4.5377
 Frc consts  --     1.2844                 0.9203                 0.9737
 IR Inten    --     2.4391                 6.3748                 2.9941

                    37                     38                     39
                     A                      A                      A
 Frequencies --   611.6915               625.2264               631.0636
 Red. masses --     6.8009                 3.1334                 7.2990
 Frc consts  --     1.4993                 0.7217                 1.7126
 IR Inten    --     1.0073                 2.0981                 2.0342

                    40                     41                     42
                     A                      A                      A
 Frequencies --   639.3045               666.6466               680.7385
 Red. masses --     5.9850                 6.2989                 4.0218
 Frc consts  --     1.4412                 1.6493                 1.0981
 IR Inten    --     5.0076                 8.0344                 7.9376

                    43                     44                     45
                     A                      A                      A
 Frequencies --   686.0381               689.7957               696.2820
 Red. masses --     4.9233                 5.0157                 5.2187
 Frc consts  --     1.3652                 1.4061                 1.4907
 IR Inten    --    43.3229                 2.7234                45.8018

                    46                     47                     48
                     A                      A                      A
 Frequencies --   740.2783               745.9457               747.3622
 Red. masses --     8.8672                 3.7949                 8.3266
 Frc consts  --     2.8630                 1.2441                 2.7402
 IR Inten    --     2.8644                 0.9517                 8.4546

                    49                     50                     51
                     A                      A                      A
 Frequencies --   758.4258               769.4322               771.0387
 Red. masses --     1.6696                 5.3501                 6.8736
 Frc consts  --     0.5658                 1.8662                 2.4076
 IR Inten    --    57.7750                 0.8055                 3.0406

                    52                     53                     54
                     A                      A                      A
 Frequencies --   782.6452               805.7267               823.9307
 Red. masses --     2.8839                 2.3546                 1.6541
 Frc consts  --     1.0408                 0.9006                 0.6616
 IR Inten    --    22.6483                 0.0488                14.8325

                    55                     56                     57
                     A                      A                      A
 Frequencies --   826.0154               838.6155               841.7217
 Red. masses --    11.2338                13.5318                 2.0296
 Frc consts  --     4.5160                 5.6070                 0.8472
 IR Inten    --    25.2862                40.0219                 0.9662

                    58                     59                     60
                     A                      A                      A
 Frequencies --   859.7300               866.3614               872.0706
 Red. masses --     6.7703                 1.4873                 7.7718
 Frc consts  --     2.9484                 0.6577                 3.4824
 IR Inten    --    38.6770                34.1971                34.5938

                    61                     62                     63
                     A                      A                      A
 Frequencies --   874.4414               881.7718               898.6363
 Red. masses --     1.6138                 5.4280                 4.5116
 Frc consts  --     0.7271                 2.4866                 2.1466
 IR Inten    --     0.5891                63.3218                23.9916

                    64                     65                     66
                     A                      A                      A
 Frequencies --   899.3185               909.1913               933.8798
 Red. masses --     1.4322                 7.6932                 6.1129
 Frc consts  --     0.6825                 3.7469                 3.1411
 IR Inten    --    12.1881                20.4992                 1.2742

                    67                     68                     69
                     A                      A                      A
 Frequencies --   951.8692               954.0748               955.8856
 Red. masses --     1.4902                 5.3352                 1.8064
 Frc consts  --     0.7955                 2.8613                 0.9725
 IR Inten    --     0.2562                 0.4205                 0.7469

                    70                     71                     72
                     A                      A                      A
 Frequencies --   965.1187               977.7178               982.3071
 Red. masses --     1.3817                 1.4849                 1.3150
 Frc consts  --     0.7583                 0.8363                 0.7476
 IR Inten    --     0.4720                 8.5755                 0.0790

                    73                     74                     75
                     A                      A                      A
 Frequencies --   985.3384              1002.1528              1002.2383
 Red. masses --     1.2998                 1.3064                 5.7732
 Frc consts  --     0.7435                 0.7731                 3.4167
 IR Inten    --     0.2175                 0.0137                21.1304

                    76                     77                     78
                     A                      A                      A
 Frequencies --  1036.7936              1059.9057              1089.1558
 Red. masses --     4.6119                 3.5809                 2.4985
 Frc consts  --     2.9209                 2.3702                 1.7463
 IR Inten    --    11.2392                 3.8069                 5.1527

                    79                     80                     81
                     A                      A                      A
 Frequencies --  1106.0705              1119.2217              1129.2876
 Red. masses --     2.2193                 4.1342                 2.3109
 Frc consts  --     1.5997                 3.0513                 1.7364
 IR Inten    --     0.7369                 1.0443                 8.3263

                    82                     83                     84
                     A                      A                      A
 Frequencies --  1135.3697              1164.7383              1176.1245
 Red. masses --     2.9174                 2.1450                 1.7666
 Frc consts  --     2.2157                 1.7145                 1.4397
 IR Inten    --     9.0920                23.4342                 0.5178

                    85                     86                     87
                     A                      A                      A
 Frequencies --  1182.2809              1191.8308              1196.4157
 Red. masses --     1.9480                 1.1956                 2.0767
 Frc consts  --     1.6043                 1.0006                 1.7514
 IR Inten    --     0.0215                 0.2500                14.7659

                    88                     89                     90
                     A                      A                      A
 Frequencies --  1222.0596              1241.9077              1253.4222
 Red. masses --     1.3588                 3.1927                 1.8591
 Frc consts  --     1.1956                 2.9013                 1.7209
 IR Inten    --     3.1894                19.4056                 7.0059

                    91                     92                     93
                     A                      A                      A
 Frequencies --  1261.9690              1281.4795              1291.8683
 Red. masses --     1.7749                 2.9168                 2.4904
 Frc consts  --     1.6654                 2.8221                 2.4489
 IR Inten    --    28.9160                 0.1480                 8.3757

                    94                     95                     96
                     A                      A                      A
 Frequencies --  1306.5643              1320.7423              1338.4016
 Red. masses --     2.9679                 2.3692                 2.4710
 Frc consts  --     2.9851                 2.4349                 2.6079
 IR Inten    --    17.8403                 4.6574                 8.7085

                    97                     98                     99
                     A                      A                      A
 Frequencies --  1357.7358              1366.2108              1371.3723
 Red. masses --     4.1273                 6.7643                 5.6371
 Frc consts  --     4.4828                 7.4388                 6.2462
 IR Inten    --    11.3504                 2.7389                24.7268

                   100                    101                    102
                     A                      A                      A
 Frequencies --  1379.6264              1390.7906              1410.0025
 Red. masses --     4.5534                 3.7921                 4.5081
 Frc consts  --     5.1064                 4.3217                 5.2806
 IR Inten    --     0.0337                 5.6514                30.8604

                   103                    104                    105
                     A                      A                      A
 Frequencies --  1424.2927              1430.0164              1436.9736
 Red. masses --     3.4598                 2.0966                 3.1939
 Frc consts  --     4.1352                 2.5261                 3.8857
 IR Inten    --    11.2700                 1.5141                 1.7487

                   106                    107                    108
                     A                      A                      A
 Frequencies --  1450.7001              1480.3465              1510.9845
 Red. masses --     3.3463                 2.5722                 7.1430
 Frc consts  --     4.1492                 3.3211                 9.6084
 IR Inten    --    18.8440                 6.6937                10.5049

                   109                    110                    111
                     A                      A                      A
 Frequencies --  1521.3699              1542.4883              1545.3992
 Red. masses --     4.3152                 3.7677                 4.1111
 Frc consts  --     5.8846                 5.2816                 5.7847
 IR Inten    --     0.1914                 1.8060                40.2063

                   112                    113                    114
                     A                      A                      A
 Frequencies --  1558.3130              1585.2923              1600.7012
 Red. masses --     6.0522                 7.9919                 6.5162
 Frc consts  --     8.6592                11.8336                 9.8371
 IR Inten    --    20.7090                35.6766                 9.3732

                   115                    116                    117
                     A                      A                      A
 Frequencies --  1611.4247              1623.7842              1648.7033
 Red. masses --     7.4026                 7.3730                 6.4927
 Frc consts  --    11.3254                11.4538                10.3982
 IR Inten    --     3.5196                95.1502                16.8167

                   118                    119                    120
                     A                      A                      A
 Frequencies --  1656.7259              1662.5593              3179.9679
 Red. masses --     5.8256                 6.7998                 1.0884
 Frc consts  --     9.4210                11.0738                 6.4848
 IR Inten    --     0.0824                 8.6907                 9.1139

                   121                    122                    123
                     A                      A                      A
 Frequencies --  3186.6157              3190.6107              3199.2325
 Red. masses --     1.0872                 1.0916                 1.0886
 Frc consts  --     6.5045                 6.5475                 6.5644
 IR Inten    --     6.7898                 2.1737                 3.5314

                   124                    125                    126
                     A                      A                      A
 Frequencies --  3201.9549              3217.3557              3217.4142
 Red. masses --     1.0936                 1.0944                 1.0945
 Frc consts  --     6.6059                 6.6747                 6.6753
 IR Inten    --    19.9158                 2.8356                 4.2872

                   127                    128                    129
                     A                      A                      A
 Frequencies --  3220.7445              3239.9414              3248.0974
 Red. masses --     1.0905                 1.0883                 1.0927
 Frc consts  --     6.6649                 6.7307                 6.7921
 IR Inten    --    12.4571                36.2001                 5.8056

                   130                    131                    132
                     A                      A                      A
 Frequencies --  3250.6763              3276.3532              3289.8878
 Red. masses --     1.1008                 1.0904                 1.0973
 Frc consts  --     6.8534                 6.8966                 6.9973
 IR Inten    --     0.3195                 5.8041                 1.3608

 - Thermochemistry -
 -------------------
 Temperature   298.150 Kelvin.  Pressure   1.00000 Atm.
 Atom     1 has atomic number  6 and mass  12.00000

 Molecular mass:   443.07285 amu.
 Principal axes and moments of inertia in atomic units:
                           1         2         3
     Eigenvalues --  6408.14529********************
           X            1.00000   0.00027  -0.00000
           Y           -0.00027   1.00000   0.00000
           Z            0.00000  -0.00000   1.00000
 This molecule is an asymmetric top.
 Rotational symmetry number  1.
 Warning -- assumption of classical behavior for rotation
           may cause significant error
 Rotational temperatures (Kelvin)      0.01352     0.00287     0.00238
 Rotational constants (GHZ):           0.28163     0.05985     0.04964
 Zero-point vibrational energy     867535.9 (Joules/Mol)
                                  207.34606 (Kcal/Mol)
 Warning -- explicit consideration of  37 degrees of freedom as
           vibrations may cause significant error
 Vibrational temperatures:     27.70    36.18    56.27    73.77   103.11
          (Kelvin)            121.78   144.61   183.94   190.91   221.53
                              255.34   282.89   311.84   334.76   338.20
                              367.73   407.24   463.78   476.02   498.77
                              518.36   521.41   575.11   600.80   643.05
                              653.73   702.76   714.07   732.82   745.58
                              780.71   795.33   825.85   840.87   843.61
                              868.26   880.09   899.56   907.96   919.82
                              959.15   979.43   987.05   992.46  1001.79
                             1065.09  1073.25  1075.29  1091.20  1107.04
                             1109.35  1126.05  1159.26  1185.45  1188.45
                             1206.58  1211.05  1236.96  1246.50  1254.71
                             1258.12  1268.67  1292.94  1293.92  1308.12
                             1343.64  1369.53  1372.70  1375.30  1388.59
                             1406.72  1413.32  1417.68  1441.87  1442.00
                             1491.71  1524.97  1567.05  1591.39  1610.31
                             1624.79  1633.54  1675.80  1692.18  1701.04
                             1714.78  1721.37  1758.27  1786.83  1803.39
                             1815.69  1843.76  1858.71  1879.85  1900.25
                             1925.66  1953.48  1965.67  1973.10  1984.97
                             2001.04  2028.68  2049.24  2057.47  2067.48
                             2087.23  2129.89  2173.97  2188.91  2219.29
                             2223.48  2242.06  2280.88  2303.05  2318.48
                             2336.26  2372.11  2383.66  2392.05  4575.26
                             4584.82  4590.57  4602.98  4606.89  4629.05
                             4629.14  4633.93  4661.55  4673.28  4676.99
                             4713.94  4733.41

 Zero-point correction=                           0.330427 (Hartree/Particle)
 Thermal correction to Energy=                    0.353113
 Thermal correction to Enthalpy=                  0.354057
 Thermal correction to Gibbs Free Energy=         0.277110
 Sum of electronic and zero-point Energies=          -1749.146845
 Sum of electronic and thermal Energies=             -1749.124159
 Sum of electronic and thermal Enthalpies=           -1749.123214
 Sum of electronic and thermal Free Energies=        -1749.200162

                     E (Thermal)             CV                S
                      KCal/Mol        Cal/Mol-Kelvin    Cal/Mol-Kelvin
 Total                  221.582             94.028            161.950
 Electronic               0.000              0.000              0.000
 Translational            0.889              2.981             44.155
 Rotational               0.889              2.981             37.194
 Vibrational            219.804             88.066             80.601
 Vibration     1          0.593              1.986              6.710
 Vibration     2          0.593              1.985              6.180
 Vibration     3          0.594              1.981              5.304
 Vibration     4          0.596              1.977              4.768
 Vibration     5          0.598              1.968              4.107
 Vibration     6          0.601              1.960              3.780
 Vibration     7          0.604              1.949              3.444
 Vibration     8          0.611              1.925              2.978
 Vibration     9          0.613              1.921              2.907
 Vibration    10          0.619              1.898              2.623
 Vibration    11          0.628              1.870              2.355
 Vibration    12          0.636              1.845              2.165
 Vibration    13          0.646              1.816              1.986
 Vibration    14          0.653              1.791              1.858
 Vibration    15          0.655              1.787              1.840
 Vibration    16          0.666              1.753              1.692
 Vibration    17          0.682              1.705              1.515
 Vibration    18          0.707              1.631              1.298
 Vibration    19          0.713              1.614              1.256
 Vibration    20          0.725              1.582              1.181
 Vibration    21          0.735              1.554              1.121
 Vibration    22          0.736              1.550              1.112
 Vibration    23          0.766              1.471              0.964
 Vibration    24          0.781              1.432              0.900
 Vibration    25          0.806              1.368              0.805
 Vibration    26          0.813              1.351              0.783
 Vibration    27          0.844              1.276              0.688
 Vibration    28          0.852              1.258              0.667
 Vibration    29          0.864              1.229              0.635
 Vibration    30          0.873              1.210              0.614
 Vibration    31          0.898              1.156              0.560
 Vibration    32          0.908              1.134              0.538
 Vibration    33          0.930              1.088              0.497
 Vibration    34          0.941              1.065              0.477
 Vibration    35          0.943              1.061              0.474
 Vibration    36          0.962              1.024              0.444
 Vibration    37          0.971              1.007              0.430

 Optimization completed.
    -- Stationary point found.
 Normal termination of Gaussian 09 at Sun Dec 29 21:14:12 2013.
