 Gaussian 09, Revision C.01,
 Gaussian 09:  EM64L-G09RevC.01 23-Sep-2011

 --------------------------------------------
 #B3LYP/6-31++G(d,p) opt scf=direct freq test
 --------------------------------------------

 Geom opt of No.32 candidate from the CEPDB database with SMILE code of
  c1c[nH]c(c1)-c1ncc(s1)-c1ncc(-c2ccc[Se]2)c2nsnc12, HPC, 20131227, Shu
 o Dai, Gaussian09
 ----------------------------------------------------------------------
 Charge =  0 Multiplicity = 1

 SCF Done:  E(RB3LYP) =  -4086.17836110     A.U. after   16 cycles
 SCF Done:  E(RB3LYP) =  -4086.48055593     A.U. after   17 cycles
 SCF Done:  E(RB3LYP) =  -4086.85116663     A.U. after   17 cycles
 SCF Done:  E(RB3LYP) =  -4087.04347576     A.U. after   18 cycles
 SCF Done:  E(RB3LYP) =  -4087.09596698     A.U. after   17 cycles
 SCF Done:  E(RB3LYP) =  -4087.11111747     A.U. after   19 cycles
 SCF Done:  E(RB3LYP) =  -4087.10453717     A.U. after   19 cycles
 SCF Done:  E(RB3LYP) =  -4087.11315698     A.U. after   19 cycles
 SCF Done:  E(RB3LYP) =  -4087.11922021     A.U. after   26 cycles
 SCF Done:  E(RB3LYP) =  -4087.12211280     A.U. after   19 cycles
 SCF Done:  E(RB3LYP) =  -4087.12447489     A.U. after   16 cycles
 SCF Done:  E(RB3LYP) =  -4087.12448741     A.U. after   16 cycles
 SCF Done:  E(RB3LYP) =  -4087.12449248     A.U. after   12 cycles
 SCF Done:  E(RB3LYP) =  -4087.12449449     A.U. after   11 cycles
 SCF Done:  E(RB3LYP) =  -4087.12449533     A.U. after   11 cycles
 SCF Done:  E(RB3LYP) =  -4087.12449612     A.U. after   11 cycles
 SCF Done:  E(RB3LYP) =  -4087.12449660     A.U. after   11 cycles
 SCF Done:  E(RB3LYP) =  -4087.12449690     A.U. after   11 cycles
 SCF Done:  E(RB3LYP) =  -4087.12449686     A.U. after   10 cycles
 Optimization completed.
    -- Stationary point found.
 Normal termination of Gaussian 09 at Sun Dec 29 05:00:10 2013.

 ----------------------------------------------------------------------
 #N Geom=AllCheck Guess=TCheck SCRF=Check Test GenChk RB3LYP/6-31++G(d,
 p) Freq
 ----------------------------------------------------------------------

 Geom opt of No.32 candidate from the CEPDB database with SMILE code of
  c1c[nH]c(c1)-c1ncc(s1)-c1ncc(-c2ccc[Se]2)c2nsnc12, HPC, 20131227, Shu
 o Dai, Gaussian09
 ----------------------------------------------------------------------
 Charge =  0 Multiplicity = 1

                         Standard orientation:
 ---------------------------------------------------------------------
 Center     Atomic      Atomic             Coordinates (Angstroms)
 Number     Number       Type             X           Y           Z
 ---------------------------------------------------------------------
      1          6           0       -7.804028   -1.068889   -0.215296
      2          6           0       -8.048546    0.297055   -0.168153
      3          7           0       -6.846286    0.938247   -0.088042
      4          1           0       -6.683615    1.934095   -0.038960
      5          6           0       -5.819728    0.016320   -0.081981
      6          6           0       -6.401225   -1.248784   -0.161225
      7          6           0       -4.456914    0.471304   -0.003409
      8          7           0       -4.143362    1.755769    0.070801
      9          6           0       -2.797443    1.924629    0.133485
     10          6           0       -2.020442    0.780006    0.109664
     11         16           0       -3.081357   -0.615979   -0.001608
     12          6           0       -0.569360    0.740425    0.175309
     13          7           0        0.078271    1.892442    0.276502
     14          6           0        1.437128    1.918056    0.342146
     15          6           0        2.291526    0.831223    0.308916
     16          6           0        3.770484    1.009057    0.447829
     17          6           0        4.388992    0.236800    1.628940
     18          6           0        5.890422    0.056184    1.392503
     19          6           0        6.056087   -0.591920    0.018014
     20         34           0        4.798823    0.401127   -1.153117
     21          6           0        1.636252   -0.437374    0.214865
     22          7           0        2.205145   -1.652752    0.200787
     23         16           0        0.981521   -2.745094    0.106614
     24          7           0       -0.305601   -1.724779    0.081336
     25          6           0        0.191417   -0.486657    0.148149
     26          1           0       -8.554503   -1.843589   -0.281073
     27          1           0       -8.977729    0.847205   -0.185914
     28          1           0       -5.868218   -2.189299   -0.177436
     29          1           0       -2.376899    2.919762    0.198776
     30          1           0        1.862707    2.916237    0.425183
     31          1           0        3.986312    2.072528    0.568515
     32          1           0        3.924302   -0.751111    1.683102
     33          1           0        4.179158    0.760747    2.569148
     34          1           0        6.334720   -0.564144    2.181473
     35          1           0        6.398617    1.028302    1.412073
     36          1           0        5.762712   -1.644130    0.030506
     37          1           0        7.064927   -0.494842   -0.387729
 ---------------------------------------------------------------------

 SCF Done:  E(RB3LYP) =  -4087.12449686     A.U. after    2 cycles

 The electronic state is 1-A.
 Alpha  occ. eigenvalues -- -453.85935 -88.99491 -88.92822 -57.45947 -52.13195
 Alpha  occ. eigenvalues --  -52.13103 -52.12799 -14.39888 -14.39541 -14.38819
 Alpha  occ. eigenvalues --  -14.35149 -14.34868 -10.27245 -10.26925 -10.26311
 Alpha  occ. eigenvalues --  -10.26272 -10.24010 -10.23749 -10.23711 -10.23326
 Alpha  occ. eigenvalues --  -10.23262 -10.23253 -10.22510 -10.21597 -10.20130
 Alpha  occ. eigenvalues --  -10.19946 -10.19774 -10.19328  -8.04777  -7.98677
 Alpha  occ. eigenvalues --   -7.70129  -6.01337  -6.00753  -6.00535  -5.95100
 Alpha  occ. eigenvalues --   -5.94742  -5.94376  -5.74412  -5.74045  -5.73053
 Alpha  occ. eigenvalues --   -2.10086  -2.10054  -2.09224  -2.08931  -2.08751
 Alpha  occ. eigenvalues --   -1.03985  -1.00185  -0.97366  -0.95977  -0.91330
 Alpha  occ. eigenvalues --   -0.85090  -0.82330  -0.81439  -0.79748  -0.78816
 Alpha  occ. eigenvalues --   -0.78018  -0.73917  -0.71633  -0.70519  -0.68005
 Alpha  occ. eigenvalues --   -0.64776  -0.63843  -0.61457  -0.60265  -0.59478
 Alpha  occ. eigenvalues --   -0.58671  -0.58054  -0.56588  -0.53725  -0.52904
 Alpha  occ. eigenvalues --   -0.50617  -0.49340  -0.48502  -0.47442  -0.47232
 Alpha  occ. eigenvalues --   -0.45939  -0.44968  -0.44722  -0.44434  -0.43645
 Alpha  occ. eigenvalues --   -0.41954  -0.41696  -0.40712  -0.40292  -0.39995
 Alpha  occ. eigenvalues --   -0.39789  -0.39675  -0.37864  -0.37190  -0.36945
 Alpha  occ. eigenvalues --   -0.35590  -0.35474  -0.34080  -0.33253  -0.32076
 Alpha  occ. eigenvalues --   -0.30412  -0.29875  -0.29574  -0.28972  -0.28675
 Alpha  occ. eigenvalues --   -0.27691  -0.26516  -0.25136  -0.21196  -0.20527
 Alpha virt. eigenvalues --   -0.11486  -0.06187  -0.02544  -0.01928  -0.01705
 Alpha virt. eigenvalues --   -0.00988  -0.00797  -0.00727   0.00329   0.00392
 Alpha virt. eigenvalues --    0.00868   0.01302   0.01698   0.01813   0.02128

 Mulliken atomic charges:
              1
     1  C   -0.283772
     2  C    0.159368
     3  N   -0.141303
     4  H    0.338944
     5  C   -0.549732
     6  C    0.529791
     7  C   -0.454312
     8  N   -0.207348
     9  C    0.229032
    10  C   -0.870060
    11  S    0.390587
    12  C   -0.433891
    13  N   -0.120340
    14  C   -0.041067
    15  C   -0.538920
    16  C   -0.582086
    17  C   -0.219077
    18  C   -0.235051
    19  C   -0.463330
    20  Se   0.099393
    21  C    0.744677
    22  N   -0.289801
    23  S    1.005956
    24  N   -0.432861
    25  C    0.353485
    26  H    0.133448
    27  H    0.145629
    28  H    0.144489
    29  H    0.216702
    30  H    0.182547
    31  H    0.171945
    32  H    0.174734
    33  H    0.179083
    34  H    0.184277
    35  H    0.123727
    36  H    0.169432
    37  H    0.185705
 Sum of Mulliken atomic charges =  -0.00000

 Dipole moment (field-independent basis, Debye):
    X=             -0.2293    Y=             -0.7651    Z=              1.8263  Tot=              1.9934
 Quadrupole moment (field-independent basis, Debye-Ang):
   XX=           -138.7294   YY=           -159.8865   ZZ=           -170.7874
   XY=             -5.1219   XZ=             10.2870   YZ=              1.3050

  Exact polarizability: 641.333  -7.113 278.150  13.752   3.728 174.961
 Approx polarizability: 890.938 -29.007 554.635  17.568  12.055 286.194

                     1                      2                      3
                     A                      A                      A
 Frequencies --    22.8019                36.3338                43.9069
 Red. masses --     7.6293                 5.3166                 5.1613
 Frc consts  --     0.0023                 0.0041                 0.0059
 IR Inten    --     0.2701                 0.4741                 0.6209

                     4                      5                      6
                     A                      A                      A
 Frequencies --    57.1820                64.1801                71.1420
 Red. masses --     6.4570                 4.6248                 7.7173
 Frc consts  --     0.0124                 0.0112                 0.0230
 IR Inten    --     0.7946                 0.3438                 0.5584

                     7                      8                      9
                     A                      A                      A
 Frequencies --    86.3268               121.3528               131.7926
 Red. masses --     6.5203                 9.5648                 5.8787
 Frc consts  --     0.0286                 0.0830                 0.0602
 IR Inten    --     0.6362                 0.5102                 0.8340

                    10                     11                     12
                     A                      A                      A
 Frequencies --   151.6524               158.1516               187.9555
 Red. masses --     5.1164                 7.7027                 6.3135
 Frc consts  --     0.0693                 0.1135                 0.1314
 IR Inten    --     0.2684                 0.2428                 0.7536

                    13                     14                     15
                     A                      A                      A
 Frequencies --   214.9096               234.8903               271.7703
 Red. masses --     9.6713                 8.4744                 5.2951
 Frc consts  --     0.2632                 0.2755                 0.2304
 IR Inten    --     0.5645                 1.8931                 4.9452

                    16                     17                     18
                     A                      A                      A
 Frequencies --   284.6418               302.9731               326.1413
 Red. masses --     2.5699                 5.1268                 8.7344
 Frc consts  --     0.1227                 0.2773                 0.5474
 IR Inten    --     3.1397                 0.3804                 0.3145

                    19                     20                     21
                     A                      A                      A
 Frequencies --   374.8420               396.0398               425.4711
 Red. masses --     6.9751                 8.4367                 5.0536
 Frc consts  --     0.5774                 0.7796                 0.5390
 IR Inten    --     1.4194                 0.6169                 0.7929

                    22                     23                     24
                     A                      A                      A
 Frequencies --   460.4148               472.8199               490.4340
 Red. masses --     4.8286                 3.3525                 6.9044
 Frc consts  --     0.6031                 0.4416                 0.9785
 IR Inten    --     6.0929                 2.8992                 6.0206

                    25                     26                     27
                     A                      A                      A
 Frequencies --   514.2707               538.1896               538.2965
 Red. masses --     9.4464                12.7006                 5.3479
 Frc consts  --     1.4720                 2.1674                 0.9130
 IR Inten    --     5.3487                 7.6997                 1.9019

                    28                     29                     30
                     A                      A                      A
 Frequencies --   557.0069               576.8754               592.7465
 Red. masses --     6.9666                 1.9548                 3.3663
 Frc consts  --     1.2735                 0.3833                 0.6969
 IR Inten    --    17.7207                50.7805                 9.8846

                    31                     32                     33
                     A                      A                      A
 Frequencies --   602.0280               625.8749               639.6496
 Red. masses --     4.1157                 3.4728                 2.1208
 Frc consts  --     0.8789                 0.8015                 0.5112
 IR Inten    --     5.1134                 2.2598                 2.1887

                    34                     35                     36
                     A                      A                      A
 Frequencies --   645.2041               660.4960               689.1035
 Red. masses --     7.5105                 5.9762                 3.7946
 Frc consts  --     1.8421                 1.5361                 1.0617
 IR Inten    --    12.0312                 3.0557                 6.0646

                    37                     38                     39
                     A                      A                      A
 Frequencies --   695.0415               730.2647               736.5249
 Red. masses --     6.3375                 8.3545                 1.2253
 Frc consts  --     1.8038                 2.6250                 0.3916
 IR Inten    --     3.5792                 1.9419                99.5281

                    40                     41                     42
                     A                      A                      A
 Frequencies --   761.6560               786.2205               809.7995
 Red. masses --     7.9979                 7.5100                 7.0835
 Frc consts  --     2.7337                 2.7351                 2.7369
 IR Inten    --     5.3776                19.5781                 0.6975

                    43                     44                     45
                     A                      A                      A
 Frequencies --   815.1802               837.9039               844.5763
 Red. masses --     1.4240                10.7208                 1.5973
 Frc consts  --     0.5575                 4.4347                 0.6713
 IR Inten    --    21.8272                49.9226                 6.7647

                    46                     47                     48
                     A                      A                      A
 Frequencies --   855.3012               887.0428               888.5948
 Red. masses --     6.3903                 1.3224                 5.9187
 Frc consts  --     2.7543                 0.6130                 2.7535
 IR Inten    --    45.8974                 0.0345                 1.9497

                    49                     50                     51
                     A                      A                      A
 Frequencies --   899.6290               904.5444               912.9102
 Red. masses --     2.2262                 2.2902                 1.4187
 Frc consts  --     1.0616                 1.1040                 0.6966
 IR Inten    --     6.1597                 3.3926                 9.2360

                    52                     53                     54
                     A                      A                      A
 Frequencies --   916.9337               943.7232               953.0698
 Red. masses --     5.1130                 7.5919                 1.5353
 Frc consts  --     2.5328                 3.9838                 0.8217
 IR Inten    --    42.3086                 9.6328                 5.0335

                    55                     56                     57
                     A                      A                      A
 Frequencies --   972.5730              1017.2360              1037.5282
 Red. masses --     1.7054                 1.5645                 2.1284
 Frc consts  --     0.9504                 0.9538                 1.3499
 IR Inten    --     2.1174                 9.9538                49.8236

                    58                     59                     60
                     A                      A                      A
 Frequencies --  1051.7884              1069.5894              1086.0727
 Red. masses --     1.8105                 1.3431                 4.6031
 Frc consts  --     1.1800                 0.9053                 3.1991
 IR Inten    --     2.2186                45.1282                 2.3405

                    61                     62                     63
                     A                      A                      A
 Frequencies --  1113.1271              1120.4571              1144.3250
 Red. masses --     1.4582                 2.0592                 1.6739
 Frc consts  --     1.0645                 1.5231                 1.2915
 IR Inten    --     5.0141               201.3327                81.8052

                    64                     65                     66
                     A                      A                      A
 Frequencies --  1155.1587              1173.4558              1198.1560
 Red. masses --     2.8998                 1.6005                 1.7735
 Frc consts  --     2.2798                 1.2985                 1.5000
 IR Inten    --     4.3277                57.3884                47.6974

                    67                     68                     69
                     A                      A                      A
 Frequencies --  1215.4609              1256.5706              1277.8592
 Red. masses --     1.3466                 2.7123                 1.7755
 Frc consts  --     1.1721                 2.5232                 1.7082
 IR Inten    --    10.8056                 6.9146                 6.5846

                    70                     71                     72
                     A                      A                      A
 Frequencies --  1280.8381              1287.0460              1297.0266
 Red. masses --     1.8524                 1.2621                 2.1224
 Frc consts  --     1.7905                 1.2317                 2.1036
 IR Inten    --    80.0599                14.4212                18.3701

                    73                     74                     75
                     A                      A                      A
 Frequencies --  1313.0399              1324.9581              1345.3628
 Red. masses --     2.4596                 3.1432                 1.7646
 Frc consts  --     2.4985                 3.2511                 1.8818
 IR Inten    --   108.9904                98.8380                12.0779

                    76                     77                     78
                     A                      A                      A
 Frequencies --  1355.6142              1365.3494              1388.9944
 Red. masses --     4.8071                 1.8146                 1.8234
 Frc consts  --     5.2048                 1.9930                 2.0727
 IR Inten    --    24.6031                32.8555                15.6728

                    79                     80                     81
                     A                      A                      A
 Frequencies --  1401.8208              1420.5335              1429.0857
 Red. masses --     2.6647                 2.8004                 7.2035
 Frc consts  --     3.0852                 3.3295                 8.6678
 IR Inten    --    43.8671                 2.7141               138.1750

                    82                     83                     84
                     A                      A                      A
 Frequencies --  1452.0709              1469.4630              1486.2466
 Red. masses --     4.4167                 3.4185                 1.1006
 Frc consts  --     5.4869                 4.3492                 1.4324
 IR Inten    --    44.8634               296.4896                15.6717

                    85                     86                     87
                     A                      A                      A
 Frequencies --  1487.9250              1491.6659              1499.3305
 Red. masses --     3.9406                 1.0968                 6.2975
 Frc consts  --     5.1401                 1.4378                 8.3408
 IR Inten    --   669.9710                 2.6209                71.7774

                    88                     89                     90
                     A                      A                      A
 Frequencies --  1506.3127              1538.7070              1560.1599
 Red. masses --     1.1058                 5.3090                 6.1573
 Frc consts  --     1.4783                 7.4059                 8.8303
 IR Inten    --     3.7446               165.2581                23.0194

                    91                     92                     93
                     A                      A                      A
 Frequencies --  1590.8022              1612.9535              3034.6402
 Red. masses --     6.8117                 4.9389                 1.0595
 Frc consts  --    10.1563                 7.5704                 5.7487
 IR Inten    --    31.1471               100.5389                49.1520

                    94                     95                     96
                     A                      A                      A
 Frequencies --  3053.7709              3071.8275              3085.5767
 Red. masses --     1.0640                 1.0949                 1.0663
 Frc consts  --     5.8460                 6.0873                 5.9816
 IR Inten    --    32.8960                11.8296                40.9636

                    97                     98                     99
                     A                      A                      A
 Frequencies --  3093.0438              3120.5979              3144.7166
 Red. masses --     1.0861                 1.0998                 1.1096
 Frc consts  --     6.1217                 6.3102                 6.4650
 IR Inten    --     5.0265                14.6163                 7.6437

                   100                    101                    102
                     A                      A                      A
 Frequencies --  3168.0965              3252.4897              3253.4369
 Red. masses --     1.0902                 1.0935                 1.0909
 Frc consts  --     6.4467                 6.8154                 6.8033
 IR Inten    --    43.8080                 2.2336                 4.9054

                   103                    104                    105
                     A                      A                      A
 Frequencies --  3265.2414              3281.3710              3655.7266
 Red. masses --     1.0955                 1.1037                 1.0812
 Frc consts  --     6.8817                 7.0016                 8.5136
 IR Inten    --     2.5426                 0.7363                85.4284

 - Thermochemistry -
 -------------------
 Temperature   298.150 Kelvin.  Pressure   1.00000 Atm.
 Atom     1 has atomic number  6 and mass  12.00000

 Molecular mass:   418.97776 amu.
 Principal axes and moments of inertia in atomic units:
                           1         2         3
     Eigenvalues --  3022.13665********************
           X            0.99989  -0.00283   0.01427
           Y            0.00253   0.99978   0.02094
           Z           -0.01433  -0.02090   0.99968
 This molecule is an asymmetric top.
 Rotational symmetry number  1.
 Warning -- assumption of classical behavior for rotation
           may cause significant error
 Rotational temperatures (Kelvin)      0.02866     0.00305     0.00288
 Rotational constants (GHZ):           0.59717     0.06356     0.05998
 Zero-point vibrational energy     711909.6 (Joules/Mol)
                                  170.15047 (Kcal/Mol)
 Warning -- explicit consideration of  31 degrees of freedom as
           vibrations may cause significant error
 Vibrational temperatures:     32.81    52.28    63.17    82.27    92.34
          (Kelvin)            102.36   124.20   174.60   189.62   218.19
                              227.54   270.43   309.21   337.95   391.02
                              409.54   435.91   469.24   539.31   569.81
                              612.16   662.43   680.28   705.62   739.92
                              774.33   774.49   801.41   829.99   852.83
                              866.18   900.49   920.31   928.30   950.31
                              991.46  1000.01  1050.69  1059.69  1095.85
                             1131.19  1165.12  1172.86  1205.56  1215.16
                             1230.59  1276.26  1278.49  1294.36  1301.44
                             1313.47  1319.26  1357.81  1371.25  1399.31
                             1463.57  1492.77  1513.29  1538.90  1562.61
                             1601.54  1612.09  1646.43  1662.01  1688.34
                             1723.88  1748.77  1807.92  1838.55  1842.84
                             1851.77  1866.13  1889.17  1906.32  1935.67
                             1950.42  1964.43  1998.45  2016.90  2043.83
                             2056.13  2089.20  2114.23  2138.37  2140.79
                             2146.17  2157.20  2167.25  2213.85  2244.72
                             2288.81  2320.68  4366.16  4393.69  4419.67
                             4439.45  4450.19  4489.84  4524.54  4558.18
                             4679.60  4680.96  4697.95  4721.16  5259.77

 Zero-point correction=                           0.271152 (Hartree/Particle)
 Thermal correction to Energy=                    0.291124
 Thermal correction to Enthalpy=                  0.292068
 Thermal correction to Gibbs Free Energy=         0.219797
 Sum of electronic and zero-point Energies=          -4086.853345
 Sum of electronic and thermal Energies=             -4086.833373
 Sum of electronic and thermal Enthalpies=           -4086.832429
 Sum of electronic and thermal Free Energies=        -4086.904700

                     E (Thermal)             CV                S
                      KCal/Mol        Cal/Mol-Kelvin    Cal/Mol-Kelvin
 Total                  182.683             77.315            152.107
 Electronic               0.000              0.000              0.000
 Translational            0.889              2.981             43.989
 Rotational               0.889              2.981             36.200
 Vibrational            180.906             71.353             71.919
 Vibration     1          0.593              1.985              6.374
 Vibration     2          0.594              1.982              5.450
 Vibration     3          0.595              1.980              5.075
 Vibration     4          0.596              1.975              4.552
 Vibration     5          0.597              1.971              4.324
 Vibration     6          0.598              1.968              4.122
 Vibration     7          0.601              1.959              3.742
 Vibration     8          0.609              1.931              3.079
 Vibration     9          0.612              1.922              2.920
 Vibration    10          0.619              1.901              2.651
 Vibration    11          0.621              1.893              2.572
 Vibration    12          0.633              1.856              2.248
 Vibration    13          0.645              1.818              2.002
 Vibration    14          0.655              1.787              1.841
 Vibration    15          0.675              1.725              1.585
 Vibration    16          0.683              1.702              1.506
 Vibration    17          0.694              1.668              1.400
 Vibration    18          0.710              1.623              1.279
 Vibration    19          0.746              1.524              1.060
 Vibration    20          0.763              1.479              0.977
 Vibration    21          0.787              1.415              0.874
 Vibration    22          0.818              1.338              0.765
 Vibration    23          0.830              1.310              0.730
 Vibration    24          0.846              1.271              0.682
 Vibration    25          0.869              1.218              0.623
 Vibration    26          0.893              1.166              0.569
 Vibration    27          0.893              1.165              0.569
 Vibration    28          0.913              1.124              0.530
 Vibration    29          0.933              1.081              0.491
 Vibration    30          0.950              1.047              0.462
 Vibration    31          0.960              1.027              0.446

 Optimization completed.
    -- Stationary point found.
 Normal termination of Gaussian 09 at Sun Dec 29 05:56:32 2013.
