 Gaussian 09, Revision C.01,
 Gaussian 09:  EM64L-G09RevC.01 23-Sep-2011

 --------------------------------------------
 #B3LYP/6-31++G(d,p) opt scf=direct freq test
 --------------------------------------------

 Geom opt of No.29 candidate from the CEPDB database with SMILE code of
  c1scc2c(cccc12)-c1cnc(-c2sc(-c3ccccn3)c3nccnc23)c2nsnc12, HPC, 201312
 27, Shuo Dai, Gaussian09
 ----------------------------------------------------------------------
 Charge =  0 Multiplicity = 1

 SCF Done:  E(RB3LYP) =  -2444.81931376     A.U. after   23 cycles
 SCF Done:  E(RB3LYP) =  -2444.84966471     A.U. after   17 cycles
 SCF Done:  E(RB3LYP) =  -2444.85665938     A.U. after   15 cycles
 SCF Done:  E(RB3LYP) =  -2444.85801331     A.U. after   15 cycles
 SCF Done:  E(RB3LYP) =  -2444.85874576     A.U. after   15 cycles
 SCF Done:  E(RB3LYP) =  -2444.85917950     A.U. after   17 cycles
 SCF Done:  E(RB3LYP) =  -2444.85931425     A.U. after   14 cycles
 SCF Done:  E(RB3LYP) =  -2444.85944111     A.U. after   15 cycles
 SCF Done:  E(RB3LYP) =  -2444.85958012     A.U. after   15 cycles
 SCF Done:  E(RB3LYP) =  -2444.85962523     A.U. after   15 cycles
 SCF Done:  E(RB3LYP) =  -2444.85967345     A.U. after   15 cycles
 SCF Done:  E(RB3LYP) =  -2444.85971682     A.U. after   15 cycles
 SCF Done:  E(RB3LYP) =  -2444.85973033     A.U. after   15 cycles
 SCF Done:  E(RB3LYP) =  -2444.85973099     A.U. after   13 cycles
 SCF Done:  E(RB3LYP) =  -2444.85973157     A.U. after   12 cycles
 SCF Done:  E(RB3LYP) =  -2444.85973172     A.U. after   11 cycles
 Optimization completed.
    -- Stationary point found.

 1\1\GINC-N013\FOpt\RB3LYP\6-31++G(d,p)\C24H12N6S3\SHUO\29-Dec-2013\0\\
 #B3LYP/6-31++G(d,p) opt scf=direct freq test\\Geom opt of No.29 candid
 ate from the CEPDB database with SMILE code of c1scc2c(cccc12)-c1cnc(-
 c2sc(-c3ccccn3)c3nccnc23)c2nsnc12, HPC, 20131227, Shuo Dai, Gaussian09
 \\0,1\C,-1.7948541017,1.392034724,0.5536316711\S,-2.8108647162,0.10490
 88059,1.0547790316\C,-1.6052542039,-1.0843398883,0.7681056488\C,-0.429
 401229,-0.5195015961,0.2896160189\C,0.8245260579,-1.1615516161,-0.0474
 96626\C,1.8786935713,-0.3557249265,-0.4285968719\C,1.7582915598,1.0623

 Normal termination of Gaussian 09 at Sun Dec 29 02:54:35 2013.

 ----------------------------------------------------------------------
 #N Geom=AllCheck Guess=TCheck SCRF=Check Test GenChk RB3LYP/6-31++G(d,
 p) Freq
 ----------------------------------------------------------------------

 Geom opt of No.29 candidate from the CEPDB database with SMILE code of
  c1scc2c(cccc12)-c1cnc(-c2sc(-c3ccccn3)c3nccnc23)c2nsnc12, HPC, 201312
 27, Shuo Dai, Gaussian09
 ----------------------------------------------------------------------
 Charge =  0 Multiplicity = 1

                         Standard orientation:
 ---------------------------------------------------------------------
 Center     Atomic      Atomic             Coordinates (Angstroms)
 Number     Number       Type             X           Y           Z
 ---------------------------------------------------------------------
      1          6           0        7.139186    1.263543    1.093273
      2         16           0        6.031323    2.180134    2.027415
      3          6           0        4.661799    1.421082    1.321558
      4          6           0        5.030312    0.473539    0.374466
      5          6           0        4.192826   -0.399715   -0.421933
      6          6           0        4.816681   -1.319392   -1.240996
      7          6           0        6.237053   -1.403628   -1.356760
      8          6           0        7.059550   -0.573841   -0.641543
      9          6           0        6.478944    0.378671    0.251642
     10          6           0        2.718807   -0.304194   -0.380708
     11          6           0        2.043766    0.908218   -0.407167
     12          7           0        0.698384    1.093661   -0.375395
     13          6           0       -0.132208    0.063444   -0.336056
     14          6           0       -1.564986    0.320484   -0.324131
     15         16           0       -2.703838   -0.816901    0.332665
     16          6           0       -4.074353    0.202392    0.098313
     17          6           0       -5.416488   -0.239548    0.506516
     18          6           0       -5.826786   -1.573570    0.319683
     19          6           0       -7.101508   -1.951630    0.734016
     20          6           0       -7.934493   -0.991879    1.309496
     21          6           0       -7.440837    0.309204    1.447367
     22          7           0       -6.216989    0.686740    1.069190
     23          6           0       -3.679770    1.403633   -0.505175
     24          7           0       -4.526811    2.399625   -0.900033
     25          6           0       -3.952051    3.424397   -1.481798
     26          6           0       -2.540252    3.494995   -1.725900
     27          7           0       -1.700498    2.545766   -1.386445
     28          6           0       -2.255193    1.473625   -0.748573
     29          6           0        0.421824   -1.272675   -0.311941
     30          7           0       -0.262913   -2.418728   -0.262513
     31         16           0        0.849504   -3.628340   -0.240014
     32          7           0        2.228664   -2.740941   -0.296163
     33          6           0        1.860211   -1.452323   -0.335034
     34          1           0        8.205002    1.405137    1.206157
     35          1           0        3.671868    1.695900    1.652951
     36          1           0        4.209682   -1.994047   -1.833797
     37          1           0        6.660933   -2.138986   -2.034080
     38          1           0        8.139733   -0.636013   -0.734970
     39          1           0        2.616335    1.828615   -0.473251
     40          1           0       -5.166101   -2.288076   -0.160917
     41          1           0       -7.440604   -2.974458    0.598198
     42          1           0       -8.937706   -1.237759    1.642654
     43          1           0       -8.057898    1.086878    1.893154
     44          1           0       -4.594906    4.239884   -1.809540
     45          1           0       -2.129240    4.362793   -2.239779
 ---------------------------------------------------------------------

 SCF Done:  E(RB3LYP) =  -2444.85973172     A.U. after    2 cycles

 The electronic state is 1-A.
 Alpha  occ. eigenvalues --  -88.99514 -88.94421 -88.93201 -14.39468 -14.38911
 Alpha  occ. eigenvalues --  -14.35819 -14.35681 -14.34835 -14.34407 -10.26715
 Alpha  occ. eigenvalues --  -10.26449 -10.26355 -10.25479 -10.24660 -10.24480
 Alpha  occ. eigenvalues --  -10.24417 -10.24362 -10.24304 -10.24223 -10.23731
 Alpha  occ. eigenvalues --  -10.23567 -10.22784 -10.22462 -10.22389 -10.22353
 Alpha  occ. eigenvalues --  -10.21903 -10.21618 -10.21564 -10.21327 -10.21273
 Alpha  occ. eigenvalues --  -10.20526 -10.20168 -10.20121  -8.04804  -8.00175
 Alpha  occ. eigenvalues --   -7.99092  -6.01364  -6.00781  -6.00560  -5.96577
 Alpha  occ. eigenvalues --   -5.96186  -5.95978  -5.95476  -5.95097  -5.94902
 Alpha  occ. eigenvalues --   -1.04032  -0.99118  -0.96000  -0.95784  -0.92031
 Alpha  occ. eigenvalues --   -0.91507  -0.90333  -0.89437  -0.84865  -0.82014
 Alpha  occ. eigenvalues --   -0.81782  -0.80621  -0.79119  -0.77111  -0.76392
 Alpha  occ. eigenvalues --   -0.74495  -0.73506  -0.71318  -0.68500  -0.67537
 Alpha  occ. eigenvalues --   -0.65814  -0.64974  -0.64183  -0.64094  -0.62213
 Alpha  occ. eigenvalues --   -0.60022  -0.59001  -0.58299  -0.57057  -0.54554
 Alpha  occ. eigenvalues --   -0.53759  -0.53170  -0.52122  -0.51533  -0.50736
 Alpha  occ. eigenvalues --   -0.49453  -0.48806  -0.48629  -0.47601  -0.47022
 Alpha  occ. eigenvalues --   -0.46879  -0.45885  -0.44905  -0.44362  -0.43860
 Alpha  occ. eigenvalues --   -0.42794  -0.42382  -0.41790  -0.41701  -0.41629
 Alpha  occ. eigenvalues --   -0.40876  -0.40496  -0.40007  -0.39878  -0.38319
 Alpha  occ. eigenvalues --   -0.37562  -0.37344  -0.36891  -0.36454  -0.35625
 Alpha  occ. eigenvalues --   -0.35555  -0.34604  -0.34273  -0.33657  -0.32036
 Alpha  occ. eigenvalues --   -0.31815  -0.30271  -0.30029  -0.29282  -0.28640
 Alpha  occ. eigenvalues --   -0.27805  -0.27054  -0.26644  -0.26566  -0.25673
 Alpha  occ. eigenvalues --   -0.24438  -0.22278  -0.20306
 Alpha virt. eigenvalues --   -0.11847  -0.09081  -0.06866  -0.04788  -0.03884
 Alpha virt. eigenvalues --   -0.03007  -0.01966  -0.01746  -0.01035  -0.00549
 Alpha virt. eigenvalues --   -0.00124   0.00332   0.00460   0.00622   0.00782

 Mulliken atomic charges:
              1
     1  C    0.490827
     2  S    0.017598
     3  C    0.153161
     4  C   -0.226660
     5  C   -0.207948
     6  C   -0.053772
     7  C    0.127466
     8  C   -0.734512
     9  C    0.289562
    10  C   -0.482378
    11  C   -0.184821
    12  N   -0.039862
    13  C   -0.409635
    14  C   -1.045766
    15  S    0.305583
    16  C   -0.883843
    17  C   -0.423727
    18  C    0.398803
    19  C   -0.484281
    20  C    0.156826
    21  C   -0.031450
    22  N   -0.032343
    23  C    0.816410
    24  N   -0.121661
    25  C    0.098153
    26  C    0.276227
    27  N   -0.115755
    28  C    0.485693
    29  C    0.010645
    30  N   -0.424985
    31  S    0.993117
    32  N   -0.387126
    33  C   -0.096625
    34  H    0.192896
    35  H    0.202375
    36  H    0.122832
    37  H    0.123479
    38  H    0.074606
    39  H    0.171284
    40  H    0.149833
    41  H    0.127828
    42  H    0.142354
    43  H    0.150031
    44  H    0.153267
    45  H    0.156292
 Sum of Mulliken atomic charges =  -0.00000

 Dipole moment (field-independent basis, Debye):
    X=             -0.4645    Y=             -2.2054    Z=             -0.2571  Tot=              2.2684
 Quadrupole moment (field-independent basis, Debye-Ang):
   XX=           -175.2191   YY=           -195.8700   ZZ=           -208.3881
   XY=             12.0609   XZ=             -2.5764   YZ=              0.0039

  Exact polarizability: 788.427 -13.479 416.975 -25.990   5.879 249.979
 Approx polarizability:1145.018 -40.746 802.239 -63.603  24.192 436.569

                     1                      2                      3
                     A                      A                      A
 Frequencies --     9.5218                20.1173                31.5712
 Red. masses --     8.0677                 7.2668                 9.7072
 Frc consts  --     0.0004                 0.0017                 0.0057
 IR Inten    --     0.1739                 0.1584                 0.2111

                     4                      5                      6
                     A                      A                      A
 Frequencies --    35.0048                43.3078                53.8590
 Red. masses --     5.9249                 5.6825                 7.7851
 Frc consts  --     0.0043                 0.0063                 0.0133
 IR Inten    --     1.1248                 0.9892                 0.5882

                     7                      8                      9
                     A                      A                      A
 Frequencies --    65.1526                87.1649                95.7042
 Red. masses --     6.5191                 7.7661                 6.6554
 Frc consts  --     0.0163                 0.0348                 0.0359
 IR Inten    --     0.2247                 0.5414                 1.9687

                    10                     11                     12
                     A                      A                      A
 Frequencies --   146.2046               154.4122               164.6187
 Red. masses --     9.1962                 7.8146                 6.9237
 Frc consts  --     0.1158                 0.1098                 0.1105
 IR Inten    --     0.2378                 0.5757                 0.5589

                    13                     14                     15
                     A                      A                      A
 Frequencies --   175.1570               183.0577               188.7028
 Red. masses --     8.0064                 7.2860                 9.4800
 Frc consts  --     0.1447                 0.1439                 0.1989
 IR Inten    --     0.9027                 2.8716                 0.9435

                    16                     17                     18
                     A                      A                      A
 Frequencies --   193.8417               202.2334               218.1455
 Red. masses --     6.7983                 6.7499                 7.8452
 Frc consts  --     0.1505                 0.1627                 0.2200
 IR Inten    --     2.5328                 1.8578                 0.8113

                    19                     20                     21
                     A                      A                      A
 Frequencies --   259.9502               268.6829               296.4746
 Red. masses --     5.1680                 6.1670                 7.2734
 Frc consts  --     0.2058                 0.2623                 0.3767
 IR Inten    --     3.3415                 0.6648                 4.0571

                    22                     23                     24
                     A                      A                      A
 Frequencies --   337.0475               377.7280               403.2792
 Red. masses --     7.0174                 7.5885                 7.4315
 Frc consts  --     0.4697                 0.6379                 0.7121
 IR Inten    --     2.1200                 5.8246                 4.4127

                    25                     26                     27
                     A                      A                      A
 Frequencies --   415.2315               424.1035               433.1180
 Red. masses --     3.5580                 6.2480                 7.8703
 Frc consts  --     0.3614                 0.6621                 0.8699
 IR Inten    --     2.1524                10.9302                 3.8121

                    28                     29                     30
                     A                      A                      A
 Frequencies --   454.3119               466.4403               479.2174
 Red. masses --     5.7353                 9.6751                10.0801
 Frc consts  --     0.6975                 1.2402                 1.3639
 IR Inten    --     1.3573                16.8062                 4.1517

                    31                     32                     33
                     A                      A                      A
 Frequencies --   487.2552               498.6852               516.6563
 Red. masses --    11.9822                 7.6777                 4.3405
 Frc consts  --     1.6761                 1.1250                 0.6826
 IR Inten    --     0.1519                 5.1544                 9.2629

                    34                     35                     36
                     A                      A                      A
 Frequencies --   531.8215               538.0978               542.5541
 Red. masses --     8.9535                 7.3923                 3.9240
 Frc consts  --     1.4920                 1.2611                 0.6806
 IR Inten    --     3.4458                 7.4018                 2.2741

                    37                     38                     39
                     A                      A                      A
 Frequencies --   577.9842               578.8491               583.7564
 Red. masses --     7.2313                 5.4822                 7.4575
 Frc consts  --     1.4233                 1.0823                 1.4973
 IR Inten    --     3.7453                 8.7849                14.2529

                    40                     41                     42
                     A                      A                      A
 Frequencies --   598.5805               621.1957               625.5326
 Red. masses --     4.7970                 6.6512                 6.3174
 Frc consts  --     1.0127                 1.5122                 1.4564
 IR Inten    --     0.6588                10.2088                 9.4651

                    43                     44                     45
                     A                      A                      A
 Frequencies --   627.5178               642.2945               649.0985
 Red. masses --     8.4437                 5.2279                 1.4714
 Frc consts  --     1.9590                 1.2707                 0.3653
 IR Inten    --     5.5035                 9.2351                 1.8114

                    46                     47                     48
                     A                      A                      A
 Frequencies --   655.8795               688.0314               694.4518
 Red. masses --     5.1122                 7.6424                 8.0719
 Frc consts  --     1.2957                 2.1316                 2.2936
 IR Inten    --     5.9122                 2.1093                 2.8510

                    49                     50                     51
                     A                      A                      A
 Frequencies --   732.0830               740.2432               753.2200
 Red. masses --     7.6734                 1.3534                 1.8013
 Frc consts  --     2.4230                 0.4370                 0.6021
 IR Inten    --     1.6841                 1.5462                16.6660

                    52                     53                     54
                     A                      A                      A
 Frequencies --   767.1316               785.2013               792.5666
 Red. masses --     7.6728                 1.7607                 2.7330
 Frc consts  --     2.6604                 0.6396                 1.0115
 IR Inten    --    20.8422                56.8912                40.0499

                    55                     56                     57
                     A                      A                      A
 Frequencies --   804.8018               812.5892               815.7438
 Red. masses --     6.2608                 4.0629                 4.2166
 Frc consts  --     2.3892                 1.5806                 1.6532
 IR Inten    --     3.8325                28.2827                14.5560

                    58                     59                     60
                     A                      A                      A
 Frequencies --   825.5747               839.9919               852.1188
 Red. masses --     5.6790                11.2098                10.5348
 Frc consts  --     2.2805                 4.6601                 4.5069
 IR Inten    --    12.5914                43.9656                54.8901

                    61                     62                     63
                     A                      A                      A
 Frequencies --   877.1434               883.2454               888.5404
 Red. masses --     1.2241                 4.8714                 5.0135
 Frc consts  --     0.5549                 2.2390                 2.3321
 IR Inten    --    15.5684                22.3175                11.7823

                    64                     65                     66
                     A                      A                      A
 Frequencies --   903.2858               907.6684               914.6113
 Red. masses --     1.4512                 3.4755                 1.5972
 Frc consts  --     0.6977                 1.6870                 0.7872
 IR Inten    --     0.6398                 6.8191                 0.9655

                    67                     68                     69
                     A                      A                      A
 Frequencies --   919.4577               966.5115               967.4997
 Red. masses --     6.5171                 1.4119                 6.7395
 Frc consts  --     3.2461                 0.7771                 3.7169
 IR Inten    --     6.0978                 3.4751                15.9785

                    70                     71                     72
                     A                      A                      A
 Frequencies --   980.5574               981.3116               982.9544
 Red. masses --     1.5076                 1.3148                 1.4649
 Frc consts  --     0.8540                 0.7460                 0.8339
 IR Inten    --     0.1712                 0.4192                 0.1568

                    73                     74                     75
                     A                      A                      A
 Frequencies --   992.8400              1001.5235              1010.0875
 Red. masses --     8.0183                 6.7238                 1.3476
 Frc consts  --     4.6569                 3.9736                 0.8101
 IR Inten    --    13.5050                 5.2161                 0.1181

                    76                     77                     78
                     A                      A                      A
 Frequencies --  1013.8355              1045.0118              1052.1173
 Red. masses --     6.2986                 3.7556                 2.9522
 Frc consts  --     3.8144                 2.4164                 1.9254
 IR Inten    --    11.1840                 3.7212                22.9902

                    79                     80                     81
                     A                      A                      A
 Frequencies --  1072.2931              1076.2928              1117.9001
 Red. masses --     2.2973                 2.7827                 4.2398
 Frc consts  --     1.5563                 1.8992                 3.1217
 IR Inten    --     4.6108                 1.5130                11.6763

                    82                     83                     84
                     A                      A                      A
 Frequencies --  1124.1628              1174.3915              1179.6230
 Red. masses --     1.5827                 1.5158                 1.1365
 Frc consts  --     1.1785                 1.2317                 0.9318
 IR Inten    --     2.5187                 4.0536                 4.9259

                    85                     86                     87
                     A                      A                      A
 Frequencies --  1184.7950              1197.0662              1212.8742
 Red. masses --     1.3602                 3.6320                 1.9266
 Frc consts  --     1.1250                 3.0664                 1.6698
 IR Inten    --     5.5882                 5.9889                 8.9560

                    88                     89                     90
                     A                      A                      A
 Frequencies --  1229.1190              1273.8053              1295.0619
 Red. masses --     1.9051                 3.9970                 3.1683
 Frc consts  --     1.6958                 3.8211                 3.1308
 IR Inten    --    14.1623                36.8789                43.0734

                    91                     92                     93
                     A                      A                      A
 Frequencies --  1302.0576              1317.0140              1328.4780
 Red. masses --     4.5059                 4.2959                 1.8945
 Frc consts  --     4.5008                 4.3902                 1.9699
 IR Inten    --    11.5290                12.6019                15.5841

                    94                     95                     96
                     A                      A                      A
 Frequencies --  1344.4499              1348.4956              1352.0354
 Red. masses --     1.6468                 5.4359                 3.7166
 Frc consts  --     1.7538                 5.8240                 4.0029
 IR Inten    --    13.1605                 1.5723                62.9169

                    97                     98                     99
                     A                      A                      A
 Frequencies --  1361.7370              1387.4743              1388.1156
 Red. masses --     4.1190                 4.0366                 2.6272
 Frc consts  --     4.5002                 4.5784                 2.9826
 IR Inten    --    21.8257                11.2984                30.9322

                   100                    101                    102
                     A                      A                      A
 Frequencies --  1395.4823              1399.3133              1425.0426
 Red. masses --     3.5119                 3.5716                 2.6978
 Frc consts  --     4.0294                 4.1204                 3.2278
 IR Inten    --     1.6986                 5.9955                 1.6792

                   103                    104                    105
                     A                      A                      A
 Frequencies --  1454.4567              1458.8249              1474.5888
 Red. masses --     2.3773                 3.4214                 3.9690
 Frc consts  --     2.9630                 4.2900                 5.0848
 IR Inten    --   109.6766                 3.7044                49.9185

                   106                    107                    108
                     A                      A                      A
 Frequencies --  1494.8011              1503.6173              1532.6719
 Red. masses --     7.7129                 2.7179                 7.7201
 Frc consts  --    10.1539                 3.6204                10.6850
 IR Inten    --   316.1110                43.0159                34.9579

                   109                    110                    111
                     A                      A                      A
 Frequencies --  1540.9874              1547.5876              1551.0490
 Red. masses --     6.5364                 4.8867                 5.8908
 Frc consts  --     9.1451                 6.8957                 8.3498
 IR Inten    --     4.6031                 2.3866                16.0551

                   112                    113                    114
                     A                      A                      A
 Frequencies --  1567.0702              1577.1995              1612.0198
 Red. masses --     5.4431                 6.8269                 5.4657
 Frc consts  --     7.8754                10.0057                 8.3683
 IR Inten    --     2.4597                57.7403                25.3225

                   115                    116                    117
                     A                      A                      A
 Frequencies --  1614.3089              1628.3843              1651.8228
 Red. masses --     6.3398                 5.4686                 5.8671
 Frc consts  --     9.7341                 8.5436                 9.4319
 IR Inten    --     1.3058               121.4720                 0.4142

                   118                    119                    120
                     A                      A                      A
 Frequencies --  3154.7690              3168.4553              3171.1943
 Red. masses --     1.0879                 1.0893                 1.0944
 Frc consts  --     6.3796                 6.4429                 6.4845
 IR Inten    --     8.0960                33.2302                62.1516

                   121                    122                    123
                     A                      A                      A
 Frequencies --  3185.1465              3189.6303              3194.8894
 Red. masses --     1.0862                 1.0879                 1.0903
 Frc consts  --     6.4928                 6.5211                 6.5573
 IR Inten    --     2.2692                 6.6400                34.4251

                   124                    125                    126
                     A                      A                      A
 Frequencies --  3202.0465              3204.9141              3213.4211
 Red. masses --     1.0949                 1.0926                 1.0982
 Frc consts  --     6.6142                 6.6123                 6.6816
 IR Inten    --    33.2290                12.5043                19.7864

                   127                    128                    129
                     A                      A                      A
 Frequencies --  3220.5413              3263.6178              3279.4812
 Red. masses --     1.0925                 1.0933                 1.0933
 Frc consts  --     6.6764                 6.8608                 6.9279
 IR Inten    --     5.3142                 0.6981                 1.0757

 - Thermochemistry -
 -------------------
 Temperature   298.150 Kelvin.  Pressure   1.00000 Atm.
 Atom     1 has atomic number  6 and mass  12.00000

 Molecular mass:   480.02856 amu.
 Principal axes and moments of inertia in atomic units:
                           1         2         3
     Eigenvalues --  7409.29739********************
           X            0.99999   0.00030  -0.00348
           Y           -0.00032   0.99998  -0.00553
           Z            0.00348   0.00553   0.99998
 This molecule is an asymmetric top.
 Rotational symmetry number  1.
 Warning -- assumption of classical behavior for rotation
           may cause significant error
 Rotational temperatures (Kelvin)      0.01169     0.00238     0.00213
 Rotational constants (GHZ):           0.24358     0.04954     0.04439
 Zero-point vibrational energy     815229.0 (Joules/Mol)
                                  194.84441 (Kcal/Mol)
 Warning -- explicit consideration of  40 degrees of freedom as
           vibrations may cause significant error
 Vibrational temperatures:     13.70    28.94    45.42    50.36    62.31
          (Kelvin)             77.49    93.74   125.41   137.70   210.36
                              222.16   236.85   252.01   263.38   271.50
                              278.89   290.97   313.86   374.01   386.57
                              426.56   484.94   543.47   580.23   597.42
                              610.19   623.16   653.65   671.10   689.49
                              701.05   717.50   743.35   765.17   774.20
                              780.61   831.59   832.83   839.89   861.22
                              893.76   900.00   902.86   924.12   933.91
                              943.66   989.92   999.16  1053.30  1065.04
                             1083.71  1103.73  1129.73  1140.33  1157.93
                             1169.13  1173.67  1187.82  1208.56  1226.01
                             1262.01  1270.79  1278.41  1299.63  1305.93
                             1315.92  1322.89  1390.59  1392.01  1410.80
                             1411.89  1414.25  1428.47  1440.97  1453.29
                             1458.68  1503.54  1513.76  1542.79  1548.54
                             1608.41  1617.42  1689.69  1697.21  1704.65
                             1722.31  1745.05  1768.43  1832.72  1863.30
                             1873.37  1894.89  1911.38  1934.36  1940.18
                             1945.27  1959.23  1996.26  1997.19  2007.79
                             2013.30  2050.32  2092.64  2098.92  2121.60
                             2150.68  2163.37  2205.17  2217.13  2226.63
                             2231.61  2254.66  2269.24  2319.33  2322.63
                             2342.88  2376.60  4539.00  4558.69  4562.64
                             4582.71  4589.16  4596.73  4607.02  4611.15
                             4623.39  4633.63  4695.61  4718.44

 Zero-point correction=                           0.310504 (Hartree/Particle)
 Thermal correction to Energy=                    0.335366
 Thermal correction to Enthalpy=                  0.336310
 Thermal correction to Gibbs Free Energy=         0.252063
 Sum of electronic and zero-point Energies=          -2444.549227
 Sum of electronic and thermal Energies=             -2444.524366
 Sum of electronic and thermal Enthalpies=           -2444.523422
 Sum of electronic and thermal Free Energies=        -2444.607669

                     E (Thermal)             CV                S
                      KCal/Mol        Cal/Mol-Kelvin    Cal/Mol-Kelvin
 Total                  210.445             98.158            177.313
 Electronic               0.000              0.000              0.000
 Translational            0.889              2.981             44.394
 Rotational               0.889              2.981             37.637
 Vibrational            208.668             92.196             95.282
 Vibration     1          0.593              1.987              8.108
 Vibration     2          0.593              1.986              6.623
 Vibration     3          0.594              1.983              5.728
 Vibration     4          0.594              1.982              5.523
 Vibration     5          0.595              1.980              5.102
 Vibration     6          0.596              1.976              4.670
 Vibration     7          0.597              1.971              4.295
 Vibration     8          0.601              1.958              3.723
 Vibration     9          0.603              1.952              3.540
 Vibration    10          0.617              1.907              2.721
 Vibration    11          0.620              1.898              2.617
 Vibration    12          0.623              1.886              2.496
 Vibration    13          0.627              1.873              2.379
 Vibration    14          0.631              1.863              2.297
 Vibration    15          0.633              1.855              2.241
 Vibration    16          0.635              1.848              2.191
 Vibration    17          0.639              1.837              2.113
 Vibration    18          0.646              1.813              1.974
 Vibration    19          0.668              1.746              1.662
 Vibration    20          0.673              1.731              1.605
 Vibration    21          0.690              1.680              1.437
 Vibration    22          0.718              1.602              1.226
 Vibration    23          0.748              1.518              1.048
 Vibration    24          0.769              1.463              0.951
 Vibration    25          0.779              1.437              0.908
 Vibration    26          0.786              1.418              0.878
 Vibration    27          0.794              1.398              0.849
 Vibration    28          0.813              1.351              0.783
 Vibration    29          0.824              1.325              0.748
 Vibration    30          0.836              1.296              0.712
 Vibration    31          0.843              1.278              0.691
 Vibration    32          0.854              1.253              0.661
 Vibration    33          0.872              1.213              0.618
 Vibration    34          0.887              1.180              0.583
 Vibration    35          0.893              1.166              0.569
 Vibration    36          0.898              1.156              0.560
 Vibration    37          0.935              1.079              0.489
 Vibration    38          0.935              1.077              0.488
 Vibration    39          0.941              1.066              0.478
 Vibration    40          0.957              1.035              0.452

 Optimization completed.
    -- Stationary point found.

 1\1\GINC-N013\Freq\RB3LYP\6-31++G(d,p)\C24H12N6S3\SHUO\29-Dec-2013\0\\
 #N Geom=AllCheck Guess=TCheck SCRF=Check Test GenChk RB3LYP/6-31++G(d,
 p) Freq\\Geom opt of No.29 candidate from the CEPDB database with SMIL
 E code of c1scc2c(cccc12)-c1cnc(-c2sc(-c3ccccn3)c3nccnc23)c2nsnc12, HP
 C, 20131227, Shuo Dai, Gaussian09\\0,1\C,-1.7948541017,1.392034724,0.5
 536316711\S,-2.8108647162,0.1049088059,1.0547790316\C,-1.6052542039,-1
 .0843398883,0.7681056488\C,-0.429401229,-0.5195015961,0.2896160189\C,0
 .8245260579,-1.1615516161,-0.047496626\C,1.8786935713,-0.3557249265,-0

 Normal termination of Gaussian 09 at Sun Dec 29 05:38:04 2013.
