 Gaussian 09, Revision C.01,
 Gaussian 09:  EM64L-G09RevC.01 23-Sep-2011

 --------------------------------------------
 #B3LYP/6-31++G(d,p) opt scf=direct freq test
 --------------------------------------------

 Geom opt of No.25 candidate from the CEPDB database with SMILE code of
  c1scc2c1ccc1[nH]c3c(ncc4cc(cnc34)-c3cncc4nsnc34)c21, HPC, 20131227, S
 huo Dai, Gaussian09
 ----------------------------------------------------------------------
 Charge =  0 Multiplicity = 1

 SCF Done:  E(RB3LYP) =  -1930.67320969     A.U. after   24 cycles
 SCF Done:  E(RB3LYP) =  -1930.80923319     A.U. after   16 cycles
 SCF Done:  E(RB3LYP) =  -1930.99397998     A.U. after   17 cycles
 SCF Done:  E(RB3LYP) =  -1931.10189790     A.U. after   18 cycles
 SCF Done:  E(RB3LYP) =  -1931.17069695     A.U. after   15 cycles
 SCF Done:  E(RB3LYP) =  -1931.19148188     A.U. after   16 cycles
 SCF Done:  E(RB3LYP) =  -1931.20842806     A.U. after   15 cycles
 SCF Done:  E(RB3LYP) =  -1931.21099944     A.U. after   14 cycles
 SCF Done:  E(RB3LYP) =  -1931.21181410     A.U. after   14 cycles
 SCF Done:  E(RB3LYP) =  -1931.21174453     A.U. after   13 cycles
 SCF Done:  E(RB3LYP) =  -1931.21153668     A.U. after   14 cycles
 SCF Done:  E(RB3LYP) =  -1931.21193833     A.U. after   13 cycles
 SCF Done:  E(RB3LYP) =  -1931.21194865     A.U. after   12 cycles
 SCF Done:  E(RB3LYP) =  -1931.21195284     A.U. after   12 cycles
 SCF Done:  E(RB3LYP) =  -1931.21195565     A.U. after   12 cycles
 SCF Done:  E(RB3LYP) =  -1931.21195614     A.U. after   11 cycles
 SCF Done:  E(RB3LYP) =  -1931.21195650     A.U. after    9 cycles
 SCF Done:  E(RB3LYP) =  -1931.21195662     A.U. after   11 cycles
 Optimization completed.
    -- Stationary point found.

 1\1\GINC-N017\FOpt\RB3LYP\6-31++G(d,p)\C21H10N6S2\SHUO\29-Dec-2013\0\\
 #B3LYP/6-31++G(d,p) opt scf=direct freq test\\Geom opt of No.25 candid
 ate from the CEPDB database with SMILE code of c1scc2c1ccc1[nH]c3c(ncc
 4cc(cnc34)-c3cncc4nsnc34)c21, HPC, 20131227, Shuo Dai, Gaussian09\\0,1
 \C,2.6678148477,0.0682025275,-0.0305025029\S,4.2323485285,-0.686274562
 1,-0.2175520012\C,2.7422526977,1.3992198166,0.2549114025\C,4.097684329
 1,1.8678902525,0.3341611583\C,5.0412577594,0.8408915501,0.0984578434\C
 ,6.4334685169,1.0639103506,0.1238594703\C,6.9243882439,2.3352075753,0.

 Normal termination of Gaussian 09 at Sun Dec 29 01:49:58 2013.

 ----------------------------------------------------------------------
 #N Geom=AllCheck Guess=TCheck SCRF=Check Test GenChk RB3LYP/6-31++G(d,
 p) Freq
 ----------------------------------------------------------------------

 Geom opt of No.25 candidate from the CEPDB database with SMILE code of
  c1scc2c1ccc1[nH]c3c(ncc4cc(cnc34)-c3cncc4nsnc34)c21, HPC, 20131227, S
 huo Dai, Gaussian09
 ----------------------------------------------------------------------
 Charge =  0 Multiplicity = 1

                         Standard orientation:
 ---------------------------------------------------------------------
 Center     Atomic      Atomic             Coordinates (Angstroms)
 Number     Number       Type             X           Y           Z
 ---------------------------------------------------------------------
      1          6           0       -6.434758    2.279566   -0.455576
      2         16           0       -7.468442    0.926693   -0.064142
      3          6           0       -5.108047    1.966225   -0.439378
      4          6           0       -4.873983    0.589668   -0.102580
      5          6           0       -6.073063   -0.122016    0.134754
      6          6           0       -6.092808   -1.488945    0.480803
      7          6           0       -4.899314   -2.188213    0.600584
      8          6           0       -3.696380   -1.497019    0.367812
      9          7           0       -2.393287   -1.975506    0.425612
     10          1           0       -2.105423   -2.915406    0.651240
     11          6           0       -1.528949   -0.953702    0.126204
     12          6           0       -2.269190    0.220346   -0.133939
     13          7           0       -1.703317    1.414598   -0.460613
     14          6           0       -0.389336    1.445794   -0.531714
     15          6           0        0.462706    0.316439   -0.290880
     16          6           0        1.867838    0.378017   -0.384085
     17          6           0        2.629223   -0.761253   -0.149764
     18          6           0        1.927249   -1.952765    0.209839
     19          7           0        0.616321   -2.056519    0.308608
     20          6           0       -0.120488   -0.941136    0.054087
     21          6           0        4.101301   -0.778515   -0.262786
     22          6           0        4.788686   -1.895449   -0.710951
     23          7           0        6.148624   -2.023084   -0.825201
     24          6           0        6.921324   -1.013516   -0.505469
     25          6           0        6.365365    0.217136   -0.043152
     26          7           0        7.043672    1.316371    0.313210
     27         16           0        5.917989    2.416978    0.771021
     28          7           0        4.544835    1.544721    0.535272
     29          6           0        4.930717    0.342945    0.081224
     30          6           0       -3.657142   -0.123550    0.019185
     31          1           0       -6.884061    3.238633   -0.676703
     32          1           0       -4.312047    2.668211   -0.654689
     33          1           0       -7.036396   -1.996654    0.654277
     34          1           0       -4.899184   -3.240547    0.867275
     35          1           0        0.070098    2.398619   -0.791552
     36          1           0        2.345640    1.317001   -0.642105
     37          1           0        2.493462   -2.850836    0.448278
     38          1           0        4.233384   -2.772535   -1.029234
     39          1           0        7.998134   -1.129627   -0.600375
 ---------------------------------------------------------------------

 SCF Done:  E(RB3LYP) =  -1931.21195662     A.U. after    2 cycles

 The electronic state is 1-A.
 Alpha  occ. eigenvalues --  -89.00649 -88.91268 -14.40542 -14.40121 -14.39803
 Alpha  occ. eigenvalues --  -14.36875 -14.35976 -14.35019 -10.27669 -10.27096
 Alpha  occ. eigenvalues --  -10.26187 -10.25428 -10.25342 -10.25293 -10.24652
 Alpha  occ. eigenvalues --  -10.24347 -10.24345 -10.23864 -10.23599 -10.23289
 Alpha  occ. eigenvalues --  -10.23195 -10.22676 -10.22588 -10.22461 -10.21268
 Alpha  occ. eigenvalues --  -10.21075 -10.20879 -10.20448 -10.19738  -8.05955
 Alpha  occ. eigenvalues --   -7.97194  -6.02505  -6.01920  -6.01728  -5.93636
 Alpha  occ. eigenvalues --   -5.93274  -5.92859  -1.05098  -1.00733  -0.97166
 Alpha  occ. eigenvalues --   -0.96823  -0.94640  -0.92336  -0.89395  -0.85579
 Alpha  occ. eigenvalues --   -0.83405  -0.82362  -0.81035  -0.79793  -0.78510
 Alpha  occ. eigenvalues --   -0.75362  -0.73244  -0.72198  -0.69469  -0.68473
 Alpha  occ. eigenvalues --   -0.66854  -0.65622  -0.64105  -0.62289  -0.61331
 Alpha  occ. eigenvalues --   -0.61048  -0.58164  -0.55657  -0.54968  -0.54587
 Alpha  occ. eigenvalues --   -0.53607  -0.52361  -0.51642  -0.50431  -0.49512
 Alpha  occ. eigenvalues --   -0.48852  -0.48320  -0.47742  -0.46327  -0.46190
 Alpha  occ. eigenvalues --   -0.45376  -0.44095  -0.43288  -0.42871  -0.42469
 Alpha  occ. eigenvalues --   -0.42419  -0.41084  -0.40978  -0.40834  -0.40111
 Alpha  occ. eigenvalues --   -0.39252  -0.38311  -0.38014  -0.36636  -0.36096
 Alpha  occ. eigenvalues --   -0.35925  -0.34642  -0.33518  -0.32932  -0.31558
 Alpha  occ. eigenvalues --   -0.31098  -0.30393  -0.28905  -0.28727  -0.28154
 Alpha  occ. eigenvalues --   -0.27273  -0.26588  -0.24807  -0.22152  -0.21259
 Alpha virt. eigenvalues --   -0.12253  -0.07758  -0.06690  -0.03523  -0.03345
 Alpha virt. eigenvalues --   -0.02484  -0.01533  -0.01194  -0.00774  -0.00019
 Alpha virt. eigenvalues --    0.00107   0.00314   0.00743   0.00944   0.01078

 Mulliken atomic charges:
              1
     1  C   -0.096939
     2  S   -0.123392
     3  C    0.059228
     4  C    0.207463
     5  C   -0.116161
     6  C   -0.247851
     7  C   -0.253120
     8  C   -0.342365
     9  N   -0.346810
    10  H    0.333376
    11  C   -0.027661
    12  C    0.040108
    13  N   -0.198495
    14  C    0.267871
    15  C    0.225517
    16  C    0.174197
    17  C   -0.206990
    18  C   -0.007609
    19  N   -0.170761
    20  C   -0.185929
    21  C   -0.361357
    22  C   -0.386975
    23  N   -0.107204
    24  C   -0.191129
    25  C    0.242280
    26  N   -0.415234
    27  S    0.895448
    28  N   -0.434228
    29  C    0.134556
    30  C    0.249265
    31  H    0.186969
    32  H    0.147256
    33  H    0.098044
    34  H    0.121456
    35  H    0.160405
    36  H    0.145961
    37  H    0.170077
    38  H    0.177530
    39  H    0.183205
 Sum of Mulliken atomic charges =  -0.00000

 Dipole moment (field-independent basis, Debye):
    X=              1.2354    Y=             -0.2846    Z=              0.4873  Tot=              1.3582
 Quadrupole moment (field-independent basis, Debye-Ang):
   XX=           -181.7592   YY=           -167.4724   ZZ=           -183.2427
   XY=             13.7139   XZ=              0.7044   YZ=             -4.7853

  Exact polarizability: 677.698 -20.338 333.909  -9.558  -4.373 165.504
 Approx polarizability: 943.569 -46.500 661.686 -24.422  -9.149 282.941

                     1                      2                      3
                     A                      A                      A
 Frequencies --    21.9393                25.9979                48.1821
 Red. masses --     9.3009                 7.9855                 9.8882
 Frc consts  --     0.0026                 0.0032                 0.0135
 IR Inten    --     0.0555                 0.1031                 0.0807

                     4                      5                      6
                     A                      A                      A
 Frequencies --    62.6147                91.5718               106.3770
 Red. masses --     8.9927                 5.2023                 8.2237
 Frc consts  --     0.0208                 0.0257                 0.0548
 IR Inten    --     0.3655                 0.1624                 0.2110

                     7                      8                      9
                     A                      A                      A
 Frequencies --   124.7621               158.8555               173.3254
 Red. masses --     9.2990                 8.5805                 6.9511
 Frc consts  --     0.0853                 0.1276                 0.1230
 IR Inten    --     0.0428                 0.8478                 1.0959

                    10                     11                     12
                     A                      A                      A
 Frequencies --   181.5925               202.5855               226.0396
 Red. masses --     6.8549                 6.1547                 6.1644
 Frc consts  --     0.1332                 0.1488                 0.1856
 IR Inten    --     3.2539                 3.7669                 0.2355

                    13                     14                     15
                     A                      A                      A
 Frequencies --   243.2292               258.1967               299.7101
 Red. masses --     6.1582                 6.1868                 6.3181
 Frc consts  --     0.2147                 0.2430                 0.3344
 IR Inten    --     0.4165                 2.2887                 0.8637

                    16                     17                     18
                     A                      A                      A
 Frequencies --   320.3864               341.9227               345.6563
 Red. masses --     5.8894                 6.8501                 8.5616
 Frc consts  --     0.3562                 0.4718                 0.6027
 IR Inten    --     5.1139                 2.8698                 5.9921

                    19                     20                     21
                     A                      A                      A
 Frequencies --   375.7853               433.5814               439.4469
 Red. masses --     6.6928                 5.6752                 3.3342
 Frc consts  --     0.5568                 0.6286                 0.3794
 IR Inten    --     1.7784                 4.2740                23.6107

                    22                     23                     24
                     A                      A                      A
 Frequencies --   447.3732               450.3564               461.5936
 Red. masses --     7.0854                 1.5087                 4.7519
 Frc consts  --     0.8355                 0.1803                 0.5965
 IR Inten    --     3.2184                33.1209                 3.5560

                    25                     26                     27
                     A                      A                      A
 Frequencies --   471.1858               504.1494               516.8959
 Red. masses --     4.4278                 7.5027                11.0161
 Frc consts  --     0.5792                 1.1235                 1.7341
 IR Inten    --    13.3695                 2.4658                 4.4878

                    28                     29                     30
                     A                      A                      A
 Frequencies --   534.4469               543.4951               554.0808
 Red. masses --     5.8944                 6.5482                 5.5651
 Frc consts  --     0.9920                 1.1396                 1.0066
 IR Inten    --    17.5645                 3.2084                 0.2130

                    31                     32                     33
                     A                      A                      A
 Frequencies --   570.1419               589.7455               596.5939
 Red. masses --     5.6630                 4.6134                 4.7628
 Frc consts  --     1.0846                 0.9454                 0.9988
 IR Inten    --     2.3852                 6.8777                 0.3898

                    34                     35                     36
                     A                      A                      A
 Frequencies --   599.6674               622.4107               636.9972
 Red. masses --     4.9129                 7.1278                 7.9704
 Frc consts  --     1.0409                 1.6269                 1.9055
 IR Inten    --     5.8177                 1.1437                 2.0659

                    37                     38                     39
                     A                      A                      A
 Frequencies --   645.5586               648.3634               649.5098
 Red. masses --     6.3543                 3.2385                 5.5555
 Frc consts  --     1.5602                 0.8021                 1.3809
 IR Inten    --     0.9124                 0.4582                 0.7931

                    40                     41                     42
                     A                      A                      A
 Frequencies --   685.8794               714.8331               732.9136
 Red. masses --     7.9483                 2.3307                11.1997
 Frc consts  --     2.2030                 0.7017                 3.5446
 IR Inten    --     0.3014                26.7139                 3.1684

                    43                     44                     45
                     A                      A                      A
 Frequencies --   736.7316               763.5803               785.2366
 Red. masses --     2.4085                 7.5801                 5.4671
 Frc consts  --     0.7702                 2.6040                 1.9861
 IR Inten    --    48.5940                 7.2460                 1.4400

                    46                     47                     48
                     A                      A                      A
 Frequencies --   785.8718               789.5912               801.0585
 Red. masses --     2.8284                 5.4359                 2.1189
 Frc consts  --     1.0292                 1.9968                 0.8011
 IR Inten    --     1.0967                 1.5698                17.5244

                    49                     50                     51
                     A                      A                      A
 Frequencies --   815.5031               821.8483               827.6268
 Red. masses --     8.4742                 8.4917                10.7495
 Frc consts  --     3.3205                 3.3793                 4.3382
 IR Inten    --     9.0327                74.5027                46.5308

                    52                     53                     54
                     A                      A                      A
 Frequencies --   841.4317               858.8611               891.5448
 Red. masses --    12.9367                 4.3873                 5.5464
 Frc consts  --     5.3965                 1.9067                 2.5975
 IR Inten    --    26.2519                52.7274                19.2400

                    55                     56                     57
                     A                      A                      A
 Frequencies --   900.4386               910.5836               916.6819
 Red. masses --     1.4765                 1.4685                 3.9874
 Frc consts  --     0.7053                 0.7174                 1.9742
 IR Inten    --     5.6579                14.2816                 1.9212

                    58                     59                     60
                     A                      A                      A
 Frequencies --   916.8315               939.5952               945.9341
 Red. masses --     1.4928                 1.3015                 1.5509
 Frc consts  --     0.7393                 0.6770                 0.8176
 IR Inten    --     5.7892                 0.0034                13.0001

                    61                     62                     63
                     A                      A                      A
 Frequencies --   962.7058               966.0282               976.0688
 Red. masses --     1.5385                 1.4336                 5.0672
 Frc consts  --     0.8401                 0.7882                 2.8443
 IR Inten    --     2.0566                 4.5170                 1.9519

                    64                     65                     66
                     A                      A                      A
 Frequencies --  1012.6181              1051.4908              1098.0934
 Red. masses --     4.6064                 3.5790                 2.7904
 Frc consts  --     2.7830                 2.3314                 1.9824
 IR Inten    --     6.0557                20.9170                 3.5846

                    67                     68                     69
                     A                      A                      A
 Frequencies --  1109.4084              1133.8411              1161.2280
 Red. masses --     1.3756                 3.3667                 1.4897
 Frc consts  --     0.9975                 2.5501                 1.1835
 IR Inten    --     8.1987                 4.5052                 6.5706

                    70                     71                     72
                     A                      A                      A
 Frequencies --  1169.3300              1190.0997              1221.4123
 Red. masses --     2.9791                 3.2977                 1.9277
 Frc consts  --     2.4000                 2.7519                 1.6944
 IR Inten    --     5.2044                 8.5574                 9.5581

                    73                     74                     75
                     A                      A                      A
 Frequencies --  1233.5280              1244.2362              1295.2588
 Red. masses --     2.7118                 2.0477                 2.5845
 Frc consts  --     2.4311                 1.8678                 2.5547
 IR Inten    --     4.2164                60.2499                21.1732

                    76                     77                     78
                     A                      A                      A
 Frequencies --  1298.3212              1306.4133              1324.9724
 Red. masses --     2.3804                 2.6810                 2.1098
 Frc consts  --     2.3641                 2.6959                 2.1823
 IR Inten    --    92.2346                14.0979                 2.0614

                    79                     80                     81
                     A                      A                      A
 Frequencies --  1355.7065              1365.2664              1371.6174
 Red. masses --     2.6903                 3.0516                 7.3158
 Frc consts  --     2.9133                 3.3513                 8.1092
 IR Inten    --    28.0821                33.4087                37.7904

                    82                     83                     84
                     A                      A                      A
 Frequencies --  1379.3475              1386.4763              1392.3562
 Red. masses --     3.9749                 3.3614                 3.3149
 Frc consts  --     4.4558                 3.8072                 3.7863
 IR Inten    --    80.7028                57.7507                10.5714

                    85                     86                     87
                     A                      A                      A
 Frequencies --  1399.9267              1424.8292              1429.5571
 Red. masses --     2.7511                 4.5103                 2.7265
 Frc consts  --     3.1766                 5.3949                 3.2829
 IR Inten    --    21.6344                28.5406                 4.5204

                    88                     89                     90
                     A                      A                      A
 Frequencies --  1440.6064              1457.3678              1475.6021
 Red. masses --     3.3699                 3.9197                 3.5217
 Frc consts  --     4.1206                 4.9050                 4.5179
 IR Inten    --    20.7924                 1.1956                17.3839

                    91                     92                     93
                     A                      A                      A
 Frequencies --  1494.9351              1513.5980              1536.5451
 Red. masses --     5.0472                 6.8176                 5.3690
 Frc consts  --     6.6458                 9.2024                 7.4685
 IR Inten    --    93.4655                 7.8945                10.2345

                    94                     95                     96
                     A                      A                      A
 Frequencies --  1546.0614              1553.0719              1580.5770
 Red. masses --     5.0692                 5.9391                 7.2629
 Frc consts  --     7.1391                 8.4402                10.6904
 IR Inten    --    30.3610                29.5699                15.1960

                    97                     98                     99
                     A                      A                      A
 Frequencies --  1610.2698              1614.8325              1634.7931
 Red. masses --     6.7735                 5.9832                 6.4509
 Frc consts  --    10.3481                 9.1927                10.1577
 IR Inten    --    19.5856                 9.8316                43.2149

                   100                    101                    102
                     A                      A                      A
 Frequencies --  1646.5485              1651.2963              3156.0722
 Red. masses --     7.0727                 8.0069                 1.0900
 Frc consts  --    11.2976                12.8637                 6.3969
 IR Inten    --    20.8948               297.8817                13.3829

                   103                    104                    105
                     A                      A                      A
 Frequencies --  3169.0603              3188.4617              3191.7964
 Red. masses --     1.0901                 1.0913                 1.0876
 Frc consts  --     6.4503                 6.5366                 6.5279
 IR Inten    --    18.5403                 4.8270                 0.8792

                   106                    107                    108
                     A                      A                      A
 Frequencies --  3199.1174              3207.3107              3216.4063
 Red. masses --     1.0910                 1.0954                 1.0915
 Frc consts  --     6.5784                 6.6390                 6.6529
 IR Inten    --    13.6101                13.5297                 1.5729

                   109                    110                    111
                     A                      A                      A
 Frequencies --  3237.5923              3260.2637              3671.3353
 Red. masses --     1.0892                 1.0996                 1.0802
 Frc consts  --     6.7270                 6.8866                 8.5787
 IR Inten    --     2.8746                 0.0781                80.6382

 - Thermochemistry -
 -------------------
 Temperature   298.150 Kelvin.  Pressure   1.00000 Atm.
 Atom     1 has atomic number  6 and mass  12.00000

 Molecular mass:   410.04084 amu.
 Principal axes and moments of inertia in atomic units:
                           1         2         3
     Eigenvalues --  3592.04544********************
           X            1.00000  -0.00258  -0.00126
           Y            0.00256   0.99992  -0.01206
           Z            0.00129   0.01206   0.99993
 This molecule is an asymmetric top.
 Rotational symmetry number  1.
 Warning -- assumption of classical behavior for rotation
           may cause significant error
 Rotational temperatures (Kelvin)      0.02411     0.00254     0.00233
 Rotational constants (GHZ):           0.50243     0.05293     0.04860
 Zero-point vibrational energy     714293.6 (Joules/Mol)
                                  170.72026 (Kcal/Mol)
 Warning -- explicit consideration of  34 degrees of freedom as
           vibrations may cause significant error
 Vibrational temperatures:     31.57    37.41    69.32    90.09   131.75
          (Kelvin)            153.05   179.50   228.56   249.38   261.27
                              291.47   325.22   349.95   371.49   431.22
                              460.96   491.95   497.32   540.67   623.83
                              632.27   643.67   647.96   664.13   677.93
                              725.36   743.70   768.95   781.97   797.20
                              820.31   848.51   858.36   862.79   895.51
                              916.50   928.81   932.85   934.50   986.83
                             1028.48  1054.50  1059.99  1098.62  1129.78
                             1130.69  1136.04  1152.54  1173.33  1182.45
                             1190.77  1210.63  1235.71  1282.73  1295.53
                             1310.13  1318.90  1319.11  1351.87  1360.99
                             1385.12  1389.90  1404.34  1456.93  1512.86
                             1579.91  1596.19  1631.34  1670.75  1682.40
                             1712.29  1757.34  1774.77  1790.18  1863.59
                             1867.99  1879.63  1906.34  1950.56  1964.31
                             1973.45  1984.57  1994.83  2003.29  2014.18
                             2050.01  2056.81  2072.71  2096.82  2123.06
                             2150.88  2177.73  2210.74  2224.43  2234.52
                             2274.09  2316.82  2323.38  2352.10  2369.01
                             2375.84  4540.88  4559.57  4587.48  4592.28
                             4602.81  4614.60  4627.69  4658.17  4690.79
                             5282.23

 Zero-point correction=                           0.272060 (Hartree/Particle)
 Thermal correction to Energy=                    0.292267
 Thermal correction to Enthalpy=                  0.293212
 Thermal correction to Gibbs Free Energy=         0.221789
 Sum of electronic and zero-point Energies=          -1930.939897
 Sum of electronic and thermal Energies=             -1930.919689
 Sum of electronic and thermal Enthalpies=           -1930.918745
 Sum of electronic and thermal Free Energies=        -1930.990168

                     E (Thermal)             CV                S
                      KCal/Mol        Cal/Mol-Kelvin    Cal/Mol-Kelvin
 Total                  183.401             82.850            150.322
 Electronic               0.000              0.000              0.000
 Translational            0.889              2.981             43.924
 Rotational               0.889              2.981             36.762
 Vibrational            181.623             76.888             69.635
 Vibration     1          0.593              1.985              6.450
 Vibration     2          0.593              1.985              6.114
 Vibration     3          0.595              1.978              4.891
 Vibration     4          0.597              1.972              4.373
 Vibration     5          0.602              1.955              3.626
 Vibration     6          0.605              1.944              3.334
 Vibration     7          0.610              1.928              3.025
 Vibration     8          0.621              1.893              2.563
 Vibration     9          0.627              1.875              2.399
 Vibration    10          0.630              1.865              2.312
 Vibration    11          0.639              1.836              2.109
 Vibration    12          0.650              1.801              1.910
 Vibration    13          0.659              1.774              1.779
 Vibration    14          0.667              1.749              1.674
 Vibration    15          0.692              1.674              1.419
 Vibration    16          0.706              1.635              1.308
 Vibration    17          0.721              1.592              1.203
 Vibration    18          0.724              1.584              1.186
 Vibration    19          0.747              1.522              1.056
 Vibration    20          0.794              1.397              0.847
 Vibration    21          0.799              1.384              0.828
 Vibration    22          0.807              1.367              0.804
 Vibration    23          0.809              1.360              0.795
 Vibration    24          0.819              1.335              0.761
 Vibration    25          0.828              1.314              0.734
 Vibration    26          0.859              1.241              0.648
 Vibration    27          0.872              1.213              0.617
 Vibration    28          0.889              1.174              0.577
 Vibration    29          0.899              1.154              0.558
 Vibration    30          0.909              1.131              0.536
 Vibration    31          0.926              1.096              0.504
 Vibration    32          0.947              1.054              0.468
 Vibration    33          0.954              1.039              0.456
 Vibration    34          0.958              1.033              0.450

 1\1\GINC-N017\Freq\RB3LYP\6-31++G(d,p)\C21H10N6S2\SHUO\29-Dec-2013\0\\
 #N Geom=AllCheck Guess=TCheck SCRF=Check Test GenChk RB3LYP/6-31++G(d,
 p) Freq\\Geom opt of No.25 candidate from the CEPDB database with SMIL
 E code of c1scc2c1ccc1[nH]c3c(ncc4cc(cnc34)-c3cncc4nsnc34)c21, HPC, 20
 131227, Shuo Dai, Gaussian09\\0,1\C,2.6678148477,0.0682025275,-0.03050
 25029\S,4.2323485285,-0.6862745621,-0.2175520012\C,2.7422526977,1.3992
 198166,0.2549114025\C,4.0976843291,1.8678902525,0.3341611583\C,5.04125
 77594,0.8408915501,0.0984578434\C,6.4334685169,1.0639103506,0.12385947

 Normal termination of Gaussian 09 at Sun Dec 29 03:26:54 2013.
