 Gaussian 09, Revision C.01,
 Gaussian 09:  EM64L-G09RevC.01 23-Sep-2011

 --------------------------------------------
 #B3LYP/6-31++G(d,p) opt scf=direct freq test
 --------------------------------------------

 Geom opt of No.38 candidate from the CEPDB database with SMILE code of
  c1occ2c1c(cc1c3cscc3c3c4ccccc4ncc3c21)-c1nccc2nsnc12, HPC, 20131227,
 Shuo Dai, Gaussian09
 ----------------------------------------------------------------------
 Charge =  0 Multiplicity = 1

 SCF Done:  E(RB3LYP) =  -2087.68699043     A.U. after   35 cycles
 SCF Done:  E(RB3LYP) =  -2087.79998220     A.U. after   28 cycles
 SCF Done:  E(RB3LYP) =  -2087.94120335     A.U. after   26 cycles
 SCF Done:  E(RB3LYP) =  -2088.05664670     A.U. after   25 cycles
 SCF Done:  E(RB3LYP) =  -2088.14680295     A.U. after   26 cycles
 SCF Done:  E(RB3LYP) =  -2088.22016472     A.U. after   27 cycles
 SCF Done:  E(RB3LYP) =  -2088.26064983     A.U. after   19 cycles
 SCF Done:  E(RB3LYP) =  -2088.28999228     A.U. after   18 cycles
 SCF Done:  E(RB3LYP) =  -2088.30852339     A.U. after   19 cycles
 SCF Done:  E(RB3LYP) =  -2088.32680218     A.U. after   19 cycles
 SCF Done:  E(RB3LYP) =  -2088.37278897     A.U. after   14 cycles
 SCF Done:  E(RB3LYP) =  -2088.37324067     A.U. after   15 cycles
 SCF Done:  E(RB3LYP) =  -2088.37347439     A.U. after   14 cycles
 SCF Done:  E(RB3LYP) =  -2088.37364934     A.U. after   13 cycles
 SCF Done:  E(RB3LYP) =  -2088.37365773     A.U. after   12 cycles
 SCF Done:  E(RB3LYP) =  -2088.37366831     A.U. after   11 cycles
 SCF Done:  E(RB3LYP) =  -2088.37366960     A.U. after   10 cycles
 SCF Done:  E(RB3LYP) =  -2088.37366999     A.U. after   10 cycles
 SCF Done:  E(RB3LYP) =  -2088.37367022     A.U. after   10 cycles
 Optimization completed.
    -- Stationary point found.
 Normal termination of Gaussian 09 at Sun Dec 29 11:50:16 2013.

 ----------------------------------------------------------------------
 #N Geom=AllCheck Guess=TCheck SCRF=Check Test GenChk RB3LYP/6-31++G(d,
 p) Freq
 ----------------------------------------------------------------------

 Geom opt of No.38 candidate from the CEPDB database with SMILE code of
  c1occ2c1c(cc1c3cscc3c3c4ccccc4ncc3c21)-c1nccc2nsnc12, HPC, 20131227,
 Shuo Dai, Gaussian09
 ----------------------------------------------------------------------
 Charge =  0 Multiplicity = 1

                         Standard orientation:
 ---------------------------------------------------------------------
 Center     Atomic      Atomic             Coordinates (Angstroms)
 Number     Number       Type             X           Y           Z
 ---------------------------------------------------------------------
      1          6           0       -1.275023   -2.202914    0.927631
      2          8           0       -1.585673   -3.272907   -0.003527
      3          6           0       -1.275103   -2.201020   -0.932363
      4          6           0       -0.285606   -1.512423   -0.001698
      5          6           0       -1.717453   -1.089439   -0.001287
      6          6           0       -2.044691    0.346789   -0.000144
      7          6           0       -0.987838    1.210970   -0.000712
      8          6           0        0.417557    0.816146   -0.001361
      9          6           0        1.457171    1.833936   -0.001461
     10          6           0        1.284890    3.205285   -0.002204
     11         16           0        2.790241    4.039151   -0.002431
     12          6           0        3.684416    2.568381   -0.001426
     13          6           0        2.859906    1.460111   -0.000921
     14          6           0        3.238858    0.052007   -0.000136
     15          6           0        4.534013   -0.462752    0.001033
     16          6           0        5.935021    0.083821    0.002221
     17          6           0        6.852287   -0.902135   -0.720495
     18          6           0        6.850661   -0.902203    0.726881
     19          6           0        6.197771   -2.076955    0.002504
     20          6           0        4.719449   -1.859165    0.001148
     21          7           0        3.761350   -2.780332    0.000381
     22          6           0        2.510514   -2.296856   -0.000486
     23          6           0        2.182904   -0.925223   -0.000714
     24          6           0        0.797094   -0.516012   -0.001340
     25          6           0       -3.428067    0.849411    0.001289
     26          7           0       -3.623795    2.161536    0.002721
     27          6           0       -4.881443    2.686151    0.003579
     28          6           0       -6.047776    1.956707    0.003161
     29          6           0       -5.906596    0.545529    0.001810
     30          7           0       -6.888823   -0.368058    0.001332
     31         16           0       -6.146585   -1.836520   -0.000233
     32          7           0       -4.575538   -1.370192   -0.000527
     33          6           0       -4.576104   -0.031585    0.000823
     34          1           0       -1.312328   -2.326286    2.001598
     35          1           0       -1.312475   -2.322025   -2.006600
     36          1           0       -1.218778    2.270012   -0.000161
     37          1           0        0.364503    3.770280   -0.002801
     38          1           0        4.761528    2.609995   -0.001422
     39          1           0        6.188515    1.135883    0.002467
     40          1           0        7.606173   -0.810823   -1.490701
     41          1           0        7.602755   -0.810721    1.498823
     42          1           0        6.648773   -3.062415    0.002937
     43          1           0        1.709658   -3.030901   -0.001126
     44          1           0       -4.919922    3.772518    0.004719
     45          1           0       -7.024742    2.425576    0.003757
 ---------------------------------------------------------------------

 SCF Done:  E(RB3LYP) =  -2088.37367022     A.U. after    2 cycles

 The electronic state is 1-A.
 Alpha  occ. eigenvalues --  -88.98952 -88.93768 -19.15621 -14.38863 -14.38322
 Alpha  occ. eigenvalues --  -14.35137 -14.34043 -10.26809 -10.26805 -10.26404
 Alpha  occ. eigenvalues --  -10.25966 -10.25910 -10.24246 -10.23700 -10.23541
 Alpha  occ. eigenvalues --  -10.23440 -10.23319 -10.23074 -10.23044 -10.22971
 Alpha  occ. eigenvalues --  -10.22928 -10.22831 -10.22780 -10.22756 -10.22579
 Alpha  occ. eigenvalues --  -10.22438 -10.22313 -10.21980 -10.21665 -10.21573
 Alpha  occ. eigenvalues --  -10.21555 -10.21394 -10.21260  -8.04261  -7.99662
 Alpha  occ. eigenvalues --   -6.00811  -6.00226  -6.00034  -5.96060  -5.95681
 Alpha  occ. eigenvalues --   -5.95440  -1.08731  -1.03433  -0.98030  -0.96012
 Alpha  occ. eigenvalues --   -0.94342  -0.91526  -0.90671  -0.89823  -0.85150
 Alpha  occ. eigenvalues --   -0.83036  -0.81297  -0.80674  -0.78214  -0.76117
 Alpha  occ. eigenvalues --   -0.75359  -0.73602  -0.71768  -0.68605  -0.68049
 Alpha  occ. eigenvalues --   -0.66447  -0.65894  -0.64274  -0.62802  -0.61248
 Alpha  occ. eigenvalues --   -0.60903  -0.60083  -0.59461  -0.58307  -0.55437
 Alpha  occ. eigenvalues --   -0.54979  -0.54682  -0.53178  -0.52968  -0.51772
 Alpha  occ. eigenvalues --   -0.51414  -0.49708  -0.48967  -0.47879  -0.47783
 Alpha  occ. eigenvalues --   -0.46834  -0.46750  -0.46470  -0.45546  -0.44118
 Alpha  occ. eigenvalues --   -0.43568  -0.42847  -0.42190  -0.41655  -0.41146
 Alpha  occ. eigenvalues --   -0.41096  -0.40454  -0.40001  -0.39521  -0.39367
 Alpha  occ. eigenvalues --   -0.38858  -0.38617  -0.36953  -0.36650  -0.36559
 Alpha  occ. eigenvalues --   -0.35640  -0.34794  -0.34014  -0.33915  -0.32458
 Alpha  occ. eigenvalues --   -0.31642  -0.30641  -0.29987  -0.29398  -0.28074
 Alpha  occ. eigenvalues --   -0.27931  -0.26567  -0.26281  -0.25275  -0.24837
 Alpha  occ. eigenvalues --   -0.24705  -0.23884  -0.20552
 Alpha virt. eigenvalues --   -0.11573  -0.08170  -0.05904  -0.03509  -0.01573
 Alpha virt. eigenvalues --   -0.01463  -0.01131  -0.00881  -0.00843  -0.00196
 Alpha virt. eigenvalues --    0.00214   0.00535   0.00609   0.00973   0.01376

 Mulliken atomic charges:
              1
     1  C    0.227723
     2  O   -0.302616
     3  C    0.226175
     4  C   -0.666816
     5  C   -0.939693
     6  C    0.002104
     7  C   -0.249750
     8  C    0.372904
     9  C   -0.069846
    10  C    0.046396
    11  S    0.129119
    12  C    0.085047
    13  C   -0.168492
    14  C    0.375528
    15  C    0.458601
    16  C    0.087089
    17  C   -0.132002
    18  C   -0.132294
    19  C    0.250352
    20  C   -1.287924
    21  N   -0.166919
    22  C    0.318545
    23  C   -0.417727
    24  C   -0.017260
    25  C    0.131268
    26  N   -0.116049
    27  C    0.110003
    28  C   -0.171492
    29  C    0.022303
    30  N   -0.391246
    31  S    0.876500
    32  N   -0.392402
    33  C    0.009036
    34  H    0.155926
    35  H    0.155893
    36  H    0.096086
    37  H    0.182307
    38  H    0.089994
    39  H    0.168332
    40  H    0.149613
    41  H    0.149587
    42  H    0.173556
    43  H    0.247675
    44  H    0.152702
    45  H    0.172163
 Sum of Mulliken atomic charges =  -0.00000

 Dipole moment (field-independent basis, Debye):
    X=              3.5871    Y=              4.0847    Z=              0.0036  Tot=              5.4362
 Quadrupole moment (field-independent basis, Debye-Ang):
   XX=           -168.7251   YY=           -207.8866   ZZ=           -198.7357
   XY=              1.2059   XZ=              0.0163   YZ=             -0.0212

  Exact polarizability: 690.145 -25.966 423.812  -0.005   0.018 185.866
 Approx polarizability:1000.803 -62.365 819.252  -0.035   0.073 321.111

                     1                      2                      3
                     A                      A                      A
 Frequencies --    11.5034                14.6395                49.9627
 Red. masses --     9.9916                 7.6466                 5.8128
 Frc consts  --     0.0008                 0.0010                 0.0085
 IR Inten    --     0.1089                 0.5003                 0.4163

                     4                      5                      6
                     A                      A                      A
 Frequencies --    53.6675                57.3549                85.4228
 Red. masses --     9.6042                 7.4599                 5.8689
 Frc consts  --     0.0163                 0.0145                 0.0252
 IR Inten    --     0.4620                 0.0067                 0.0182

                     7                      8                      9
                     A                      A                      A
 Frequencies --    99.9164               120.9442               146.6885
 Red. masses --     5.3467                 9.5850                10.0838
 Frc consts  --     0.0314                 0.0826                 0.1278
 IR Inten    --     0.2616                 0.1456                 0.6490

                    10                     11                     12
                     A                      A                      A
 Frequencies --   168.9502               173.0905               185.3105
 Red. masses --     5.0876                 4.6846                 7.8755
 Frc consts  --     0.0856                 0.0827                 0.1593
 IR Inten    --     0.1644                 1.5353                 1.2110

                    13                     14                     15
                     A                      A                      A
 Frequencies --   187.0299               209.5616               230.2114
 Red. masses --     4.5708                 8.9833                10.0580
 Frc consts  --     0.0942                 0.2324                 0.3141
 IR Inten    --     1.1532                 0.0154                 0.1644

                    16                     17                     18
                     A                      A                      A
 Frequencies --   237.4326               240.7285               279.5265
 Red. masses --     4.2609                 5.3010                 5.1386
 Frc consts  --     0.1415                 0.1810                 0.2366
 IR Inten    --     0.1684                 0.0627                 7.9757

                    19                     20                     21
                     A                      A                      A
 Frequencies --   288.2864               333.6083               355.1916
 Red. masses --     7.9242                 8.7414                 7.5868
 Frc consts  --     0.3880                 0.5732                 0.5639
 IR Inten    --     2.5305                 1.9767                 1.1546

                    22                     23                     24
                     A                      A                      A
 Frequencies --   397.1218               433.8908               438.9721
 Red. masses --     8.4124                 8.7244                 6.9820
 Frc consts  --     0.7817                 0.9677                 0.7927
 IR Inten    --     0.7907                 5.8531                 2.4770

                    25                     26                     27
                     A                      A                      A
 Frequencies --   444.7214               470.5320               476.4196
 Red. masses --     7.0019                 4.9449                 7.4349
 Frc consts  --     0.8159                 0.6450                 0.9943
 IR Inten    --     0.7374                 0.2850                16.1138

                    28                     29                     30
                     A                      A                      A
 Frequencies --   493.8681               524.9160               531.9776
 Red. masses --     6.3012                 9.9978                 3.9187
 Frc consts  --     0.9055                 1.6231                 0.6534
 IR Inten    --     0.7442                 3.4118                 0.0274

                    31                     32                     33
                     A                      A                      A
 Frequencies --   552.2734               560.4442               576.0807
 Red. masses --     5.6434                 8.8029                 5.1488
 Frc consts  --     1.0141                 1.6291                 1.0068
 IR Inten    --    13.6570                 1.8989                 1.4275

                    34                     35                     36
                     A                      A                      A
 Frequencies --   585.6386               594.0263               594.2812
 Red. masses --     9.0098                 6.7096                 4.6136
 Frc consts  --     1.8206                 1.3949                 0.9600
 IR Inten    --     0.6491                 6.1643                 2.1774

                    37                     38                     39
                     A                      A                      A
 Frequencies --   622.0892               648.5926               654.5460
 Red. masses --     7.9560                 1.7583                 2.6588
 Frc consts  --     1.8140                 0.4358                 0.6711
 IR Inten    --    10.1860                 0.0794                 0.4509

                    40                     41                     42
                     A                      A                      A
 Frequencies --   657.1233               667.8084               680.1340
 Red. masses --     7.5241                 4.9050                 7.0807
 Frc consts  --     1.9143                 1.2888                 1.9298
 IR Inten    --     0.2999                 0.9016                17.4319

                    43                     44                     45
                     A                      A                      A
 Frequencies --   694.5025               700.8411               709.3260
 Red. masses --     5.6496                 4.6765                 4.3377
 Frc consts  --     1.6055                 1.3534                 1.2859
 IR Inten    --     4.7829                15.9999                46.5621

                    46                     47                     48
                     A                      A                      A
 Frequencies --   728.7882               733.7304               740.3721
 Red. masses --     2.3658                 1.8101                 5.8548
 Frc consts  --     0.7403                 0.5742                 1.8909
 IR Inten    --    38.9918                 9.7308                15.8619

                    49                     50                     51
                     A                      A                      A
 Frequencies --   745.8830               774.6535               776.1155
 Red. masses --     5.0300                 4.2488                 1.4699
 Frc consts  --     1.6488                 1.5022                 0.5217
 IR Inten    --     1.8977                 3.3610                53.2312

                    52                     53                     54
                     A                      A                      A
 Frequencies --   787.1188               799.1482               806.4546
 Red. masses --     7.0432                 3.5623                 4.2387
 Frc consts  --     2.5710                 1.3404                 1.6242
 IR Inten    --     0.2316                 7.0260                 3.1374

                    55                     56                     57
                     A                      A                      A
 Frequencies --   823.6239               827.4562               832.8637
 Red. masses --     2.1689                10.5550                 2.1327
 Frc consts  --     0.8668                 4.2579                 0.8716
 IR Inten    --     6.8809                16.3038                23.6247

                    58                     59                     60
                     A                      A                      A
 Frequencies --   833.6687               846.7184               852.9153
 Red. masses --    11.5385                 6.1331                 5.1487
 Frc consts  --     4.7248                 2.5907                 2.2068
 IR Inten    --    50.2939                 0.4592                18.2200

                    61                     62                     63
                     A                      A                      A
 Frequencies --   876.5940               877.3760               882.6766
 Red. masses --     9.6613                 5.3953                 5.3471
 Frc consts  --     4.3741                 2.4470                 2.4546
 IR Inten    --    20.0564                 3.7708                61.9040

                    64                     65                     66
                     A                      A                      A
 Frequencies --   889.8505               896.3358               901.3524
 Red. masses --     3.7954                 4.0577                 3.6800
 Frc consts  --     1.7707                 1.9207                 1.7615
 IR Inten    --     4.2384                10.9203                39.3607

                    67                     68                     69
                     A                      A                      A
 Frequencies --   901.7614               941.1107               941.8353
 Red. masses --     1.1031                 6.0235                 1.4970
 Frc consts  --     0.5285                 3.1433                 0.7824
 IR Inten    --     0.0166                21.2400                 4.2761

                    70                     71                     72
                     A                      A                      A
 Frequencies --   949.0195               953.5356               961.7650
 Red. masses --     1.7101                 1.6657                 1.6198
 Frc consts  --     0.9074                 0.8923                 0.8828
 IR Inten    --     9.3672                 9.3286                 1.1938

                    73                     74                     75
                     A                      A                      A
 Frequencies --   968.5780               981.2192               985.8164
 Red. masses --     5.5651                 1.5258                 1.3594
 Frc consts  --     3.0760                 0.8655                 0.7784
 IR Inten    --    44.9316                18.4994                 0.1406

                    76                     77                     78
                     A                      A                      A
 Frequencies --   999.2922              1053.1439              1063.4626
 Red. masses --     1.2670                 4.0976                 4.2778
 Frc consts  --     0.7454                 2.6776                 2.8505
 IR Inten    --     0.0025                16.2342                 3.4952

                    79                     80                     81
                     A                      A                      A
 Frequencies --  1084.5519              1104.5996              1106.8174
 Red. masses --     2.3577                 3.8607                 2.2639
 Frc consts  --     1.6340                 2.7754                 1.6340
 IR Inten    --    13.5508                 5.1162                 0.0029

                    82                     83                     84
                     A                      A                      A
 Frequencies --  1107.9128              1119.6328              1126.7464
 Red. masses --     1.7420                 1.4279                 2.6325
 Frc consts  --     1.2598                 1.0546                 1.9691
 IR Inten    --    23.0154                 4.8539                 3.0918

                    85                     86                     87
                     A                      A                      A
 Frequencies --  1141.0472              1182.4798              1185.0108
 Red. masses --     3.7288                 1.9172                 1.5665
 Frc consts  --     2.8604                 1.5794                 1.2961
 IR Inten    --    14.2914                 0.1245                 2.4560

                    88                     89                     90
                     A                      A                      A
 Frequencies --  1195.4093              1224.2215              1233.7538
 Red. masses --     1.5527                 2.5992                 2.0123
 Frc consts  --     1.3073                 2.2951                 1.8046
 IR Inten    --     4.8462                27.5299                 4.4440

                    91                     92                     93
                     A                      A                      A
 Frequencies --  1246.5459              1250.9818              1258.9893
 Red. masses --     2.5547                 2.5773                 1.9957
 Frc consts  --     2.3389                 2.3764                 1.8637
 IR Inten    --     8.1605                 7.7218                 2.6627

                    94                     95                     96
                     A                      A                      A
 Frequencies --  1269.9330              1279.8609              1321.2846
 Red. masses --     3.0771                 2.5153                 2.9520
 Frc consts  --     2.9238                 2.4276                 3.0364
 IR Inten    --     7.7190                11.4127                51.2298

                    97                     98                     99
                     A                      A                      A
 Frequencies --  1331.7278              1339.8439              1348.3740
 Red. masses --     3.2230                 3.9341                 4.0207
 Frc consts  --     3.3677                 4.1611                 4.3070
 IR Inten    --    59.0840                14.6555                30.9425

                   100                    101                    102
                     A                      A                      A
 Frequencies --  1356.1107              1371.8243              1391.9264
 Red. masses --     3.8915                 5.1690                 5.3994
 Frc consts  --     4.2165                 5.7313                 6.1635
 IR Inten    --     9.9107                63.4917               141.2983

                   103                    104                    105
                     A                      A                      A
 Frequencies --  1397.8202              1411.7200              1432.2021
 Red. masses --     4.2959                 6.3812                 3.2576
 Frc consts  --     4.9455                 7.4929                 3.9370
 IR Inten    --    20.9665               107.6629                 7.9521

                   106                    107                    108
                     A                      A                      A
 Frequencies --  1436.5044              1461.2644              1479.4522
 Red. masses --     3.6085                 5.0264                 7.4096
 Frc consts  --     4.3872                 6.3237                 9.5554
 IR Inten    --     0.5140               103.8735               414.5207

                   109                    110                    111
                     A                      A                      A
 Frequencies --  1492.4447              1520.0647              1546.0506
 Red. masses --     4.5579                 6.7700                 7.4549
 Frc consts  --     5.9815                 9.2165                10.4988
 IR Inten    --    32.1059                44.4043                14.6874

                   112                    113                    114
                     A                      A                      A
 Frequencies --  1548.0534              1578.9120              1594.8944
 Red. masses --     4.9330                 8.7801                 6.6482
 Frc consts  --     6.9651                12.8964                 9.9636
 IR Inten    --    27.4970               106.2903                39.1940

                   115                    116                    117
                     A                      A                      A
 Frequencies --  1609.8279              1627.4852              1639.4758
 Red. masses --     7.4684                 8.5284                 7.7963
 Frc consts  --    11.4034                13.3092                12.3467
 IR Inten    --    14.0022                91.7435                40.2397

                   118                    119                    120
                     A                      A                      A
 Frequencies --  3182.1449              3194.3847              3221.5893
 Red. masses --     1.0897                 1.0908                 1.0885
 Frc consts  --     6.5015                 6.5578                 6.6561
 IR Inten    --    35.9984                 4.1921                 1.7023

                   121                    122                    123
                     A                      A                      A
 Frequencies --  3223.7116              3228.6795              3229.9144
 Red. masses --     1.0926                 1.0899                 1.0948
 Frc consts  --     6.6897                 6.6943                 6.7292
 IR Inten    --     6.2338                 3.9677                 4.6265

                   124                    125                    126
                     A                      A                      A
 Frequencies --  3230.8140              3246.9995              3248.1045
 Red. masses --     1.0902                 1.1085                 1.0927
 Frc consts  --     6.7050                 6.8856                 6.7919
 IR Inten    --     9.7697                14.9501                 5.2839

                   127                    128                    129
                     A                      A                      A
 Frequencies --  3250.6771              3274.0821              3299.6130
 Red. masses --     1.1007                 1.0931                 1.0924
 Frc consts  --     6.8529                 6.9036                 7.0073
 IR Inten    --     0.0393                 1.5866                 0.0013

 - Thermochemistry -
 -------------------
 Temperature   298.150 Kelvin.  Pressure   1.00000 Atm.
 Atom     1 has atomic number  6 and mass  12.00000

 Molecular mass:   460.04525 amu.
 Principal axes and moments of inertia in atomic units:
                           1         2         3
     Eigenvalues --  6847.63773********************
           X            0.99997  -0.00796   0.00000
           Y            0.00796   0.99997   0.00000
           Z           -0.00000  -0.00000   1.00000
 This molecule is an asymmetric top.
 Rotational symmetry number  1.
 Warning -- assumption of classical behavior for rotation
           may cause significant error
 Rotational temperatures (Kelvin)      0.01265     0.00305     0.00248
 Rotational constants (GHZ):           0.26356     0.06350     0.05165
 Zero-point vibrational energy     821594.4 (Joules/Mol)
                                  196.36578 (Kcal/Mol)
 Warning -- explicit consideration of  36 degrees of freedom as
           vibrations may cause significant error
 Vibrational temperatures:     16.55    21.06    71.89    77.22    82.52
          (Kelvin)            122.90   143.76   174.01   211.05   243.08
                              249.04   266.62   269.09   301.51   331.22
                              341.61   346.35   402.18   414.78   479.99
                              511.04   571.37   624.27   631.58   639.85
                              676.99   685.46   710.57   755.24   765.40
                              794.60   806.35   828.85   842.60   854.67
                              855.04   895.05   933.18   941.74   945.45
                              960.83   978.56   999.23  1008.35  1020.56
                             1048.56  1055.67  1065.23  1073.16  1114.55
                             1116.66  1132.49  1149.79  1160.31  1185.01
                             1190.52  1198.30  1199.46  1218.24  1227.15
                             1261.22  1262.35  1269.97  1280.29  1289.63
                             1296.84  1297.43  1354.05  1355.09  1365.43
                             1371.92  1383.76  1393.57  1411.75  1418.37
                             1437.76  1515.24  1530.08  1560.43  1589.27
                             1592.46  1594.04  1610.90  1621.13  1641.71
                             1701.32  1704.96  1719.93  1761.38  1775.09
                             1793.50  1799.88  1811.40  1827.15  1841.43
                             1901.03  1916.06  1927.73  1940.01  1951.14
                             1973.75  2002.67  2011.15  2031.15  2060.62
                             2066.81  2102.43  2128.60  2147.29  2187.03
                             2224.42  2227.30  2271.70  2294.69  2316.18
                             2341.59  2358.84  4578.39  4596.00  4635.14
                             4638.20  4645.34  4647.12  4648.41  4671.70
                             4673.29  4676.99  4710.67  4747.40

 Zero-point correction=                           0.312929 (Hartree/Particle)
 Thermal correction to Energy=                    0.335902
 Thermal correction to Enthalpy=                  0.336846
 Thermal correction to Gibbs Free Energy=         0.258400
 Sum of electronic and zero-point Energies=          -2088.060741
 Sum of electronic and thermal Energies=             -2088.037768
 Sum of electronic and thermal Enthalpies=           -2088.036824
 Sum of electronic and thermal Free Energies=        -2088.115270

                     E (Thermal)             CV                S
                      KCal/Mol        Cal/Mol-Kelvin    Cal/Mol-Kelvin
 Total                  210.782             94.857            165.103
 Electronic               0.000              0.000              0.000
 Translational            0.889              2.981             44.267
 Rotational               0.889              2.981             37.162
 Vibrational            209.004             88.895             83.674
 Vibration     1          0.593              1.987              7.733
 Vibration     2          0.593              1.986              7.254
 Vibration     3          0.595              1.978              4.819
 Vibration     4          0.596              1.976              4.677
 Vibration     5          0.596              1.975              4.546
 Vibration     6          0.601              1.959              3.762
 Vibration     7          0.604              1.949              3.456
 Vibration     8          0.609              1.932              3.085
 Vibration     9          0.617              1.906              2.715
 Vibration    10          0.625              1.881              2.447
 Vibration    11          0.627              1.876              2.402
 Vibration    12          0.631              1.860              2.274
 Vibration    13          0.632              1.858              2.257
 Vibration    14          0.642              1.826              2.047
 Vibration    15          0.652              1.795              1.877
 Vibration    16          0.656              1.783              1.822
 Vibration    17          0.658              1.778              1.797
 Vibration    18          0.680              1.711              1.537
 Vibration    19          0.685              1.695              1.484
 Vibration    20          0.715              1.608              1.243
 Vibration    21          0.731              1.565              1.143
 Vibration    22          0.764              1.476              0.973
 Vibration    23          0.795              1.396              0.846
 Vibration    24          0.799              1.385              0.830
 Vibration    25          0.804              1.373              0.812
 Vibration    26          0.828              1.315              0.736
 Vibration    27          0.833              1.302              0.720
 Vibration    28          0.850              1.264              0.674
 Vibration    29          0.880              1.195              0.599
 Vibration    30          0.887              1.179              0.583
 Vibration    31          0.908              1.135              0.539
 Vibration    32          0.916              1.117              0.523
 Vibration    33          0.932              1.083              0.493
 Vibration    34          0.943              1.062              0.475
 Vibration    35          0.952              1.045              0.460
 Vibration    36          0.952              1.044              0.460

 Normal termination of Gaussian 09 at Sun Dec 29 14:42:30 2013.
