 Gaussian 09, Revision C.01,
 Gaussian 09:  EM64L-G09RevC.01 23-Sep-2011

 --------------------------------------------
 #B3LYP/6-31++G(d,p) opt scf=direct freq test
 --------------------------------------------

 Geom opt of No.71 candidate from the CEPDB database with SMILE code of
  c1cc(oc1-c1scc2nccnc12)-c1cnc(-c2cccc3nsnc23)c2nsnc12, HPC, 20131227,
  Shuo Dai, Gaussian09
 ----------------------------------------------------------------------
 Charge =  0 Multiplicity = 1

 SCF Done:  E(RB3LYP) =  -2458.66597740     A.U. after   32 cycles
 SCF Done:  E(RB3LYP) =  -2458.68717621     A.U. after   18 cycles
 SCF Done:  E(RB3LYP) =  -2458.69028846     A.U. after   16 cycles
 SCF Done:  E(RB3LYP) =  -2458.69044673     A.U. after   16 cycles
 SCF Done:  E(RB3LYP) =  -2458.69085344     A.U. after   13 cycles
 SCF Done:  E(RB3LYP) =  -2458.69087338     A.U. after   12 cycles
 SCF Done:  E(RB3LYP) =  -2458.69087693     A.U. after   12 cycles
 SCF Done:  E(RB3LYP) =  -2458.69088072     A.U. after   12 cycles
 SCF Done:  E(RB3LYP) =  -2458.69089109     A.U. after   13 cycles
 SCF Done:  E(RB3LYP) =  -2458.69087348     A.U. after   13 cycles
 SCF Done:  E(RB3LYP) =  -2458.69246162     A.U. after   18 cycles
 SCF Done:  E(RB3LYP) =  -2458.69161336     A.U. after   18 cycles
 SCF Done:  E(RB3LYP) =  -2458.69312712     A.U. after   17 cycles
 SCF Done:  E(RB3LYP) =  -2458.69327501     A.U. after   17 cycles
 SCF Done:  E(RB3LYP) =  -2458.69333433     A.U. after   15 cycles
 SCF Done:  E(RB3LYP) =  -2458.69335607     A.U. after   12 cycles
 SCF Done:  E(RB3LYP) =  -2458.69335812     A.U. after   12 cycles
 SCF Done:  E(RB3LYP) =  -2458.69335882     A.U. after   12 cycles
 SCF Done:  E(RB3LYP) =  -2458.69335890     A.U. after   10 cycles
 Optimization completed.
    -- Stationary point found.
 Normal termination of Gaussian 09 at Sun Dec 29 20:42:57 2013.

 ----------------------------------------------------------------------
 #N Geom=AllCheck Guess=TCheck SCRF=Check Test GenChk RB3LYP/6-31++G(d,
 p) Freq
 ----------------------------------------------------------------------

 Geom opt of No.71 candidate from the CEPDB database with SMILE code of
  c1cc(oc1-c1scc2nccnc12)-c1cnc(-c2cccc3nsnc23)c2nsnc12, HPC, 20131227,
  Shuo Dai, Gaussian09
 ----------------------------------------------------------------------
 Charge =  0 Multiplicity = 1

                         Standard orientation:
 ---------------------------------------------------------------------
 Center     Atomic      Atomic             Coordinates (Angstroms)
 Number     Number       Type             X           Y           Z
 ---------------------------------------------------------------------
      1          6           0       -3.446496    1.833949   -0.300236
      2          6           0       -2.097429    2.269253   -0.323028
      3          6           0       -1.309098    1.163027   -0.080469
      4          8           0       -2.118867    0.063215    0.090208
      5          6           0       -3.418696    0.477726   -0.044309
      6          6           0       -4.440095   -0.514967    0.097582
      7         16           0       -4.066317   -2.180884    0.421908
      8          6           0       -5.712814   -2.671235    0.445005
      9          6           0       -6.553030   -1.594924    0.210703
     10          7           0       -7.921606   -1.643674    0.163542
     11          6           0       -8.509659   -0.496087   -0.073451
     12          6           0       -7.793170    0.734827   -0.272230
     13          7           0       -6.482678    0.819577   -0.234066
     14          6           0       -5.831859   -0.354598    0.010353
     15          6           0        0.112838    0.951718    0.025846
     16          6           0        0.669518   -0.298387    0.278802
     17          7           0        1.993079   -0.571556    0.398376
     18          6           0        2.906605    0.375658    0.280125
     19          6           0        4.329122    0.010910    0.437393
     20          6           0        5.224761    0.833272    1.096325
     21          6           0        6.587997    0.473797    1.319067
     22          6           0        7.105431   -0.716995    0.875246
     23          6           0        6.238544   -1.591246    0.160434
     24          7           0        6.591233   -2.766024   -0.379858
     25         16           0        5.248157   -3.348929   -1.126207
     26          7           0        4.182805   -2.147303   -0.790232
     27          6           0        4.845566   -1.237657   -0.065550
     28          6           0        2.479040    1.728066    0.009393
     29          7           0        3.257489    2.804147   -0.164629
     30         16           0        2.256784    4.068345   -0.461972
     31          7           0        0.804202    3.302029   -0.384354
     32          6           0        1.064768    2.015939   -0.121002
     33          1           0       -4.341203    2.418334   -0.448802
     34          1           0       -1.729178    3.268523   -0.495293
     35          1           0       -5.986000   -3.700957    0.624827
     36          1           0       -9.597284   -0.490533   -0.118981
     37          1           0       -8.349182    1.650360   -0.464726
     38          1           0        0.014738   -1.154673    0.401826
     39          1           0        4.878933    1.786398    1.477964
     40          1           0        7.220868    1.168877    1.862399
     41          1           0        8.138521   -1.001204    1.042014
 ---------------------------------------------------------------------

 SCF Done:  E(RB3LYP) =  -2458.69335890     A.U. after    2 cycles

 The electronic state is 1-A.
 Alpha  occ. eigenvalues --  -88.99929 -88.98008 -88.95004 -19.23798 -14.39805
 Alpha  occ. eigenvalues --  -14.39456 -14.37789 -14.37680 -14.37179 -14.36950
 Alpha  occ. eigenvalues --  -14.35456 -10.27552 -10.27046 -10.26986 -10.26717
 Alpha  occ. eigenvalues --  -10.26396 -10.25438 -10.25389 -10.25357 -10.25274
 Alpha  occ. eigenvalues --  -10.25162 -10.25149 -10.24980 -10.24214 -10.23889
 Alpha  occ. eigenvalues --  -10.23847 -10.23008 -10.21937 -10.21900 -10.21842
 Alpha  occ. eigenvalues --  -10.20928 -10.20757  -8.05228  -8.03346  -8.00811
 Alpha  occ. eigenvalues --   -6.01786  -6.01202  -6.00987  -5.99902  -5.99318
 Alpha  occ. eigenvalues --   -5.99104  -5.97213  -5.96828  -5.96600  -1.13371
 Alpha  occ. eigenvalues --   -1.04448  -1.02499  -0.99987  -0.96429  -0.93181
 Alpha  occ. eigenvalues --   -0.91810  -0.90341  -0.89799  -0.87098  -0.84006
 Alpha  occ. eigenvalues --   -0.82292  -0.80677  -0.79293  -0.77496  -0.76964
 Alpha  occ. eigenvalues --   -0.76411  -0.72828  -0.69022  -0.68363  -0.65932
 Alpha  occ. eigenvalues --   -0.65703  -0.64686  -0.63783  -0.62190  -0.61553
 Alpha  occ. eigenvalues --   -0.61172  -0.58744  -0.56879  -0.55520  -0.54144
 Alpha  occ. eigenvalues --   -0.53489  -0.52648  -0.51379  -0.50888  -0.50289
 Alpha  occ. eigenvalues --   -0.49639  -0.49120  -0.48519  -0.47422  -0.47265
 Alpha  occ. eigenvalues --   -0.46203  -0.45644  -0.45195  -0.44742  -0.43804
 Alpha  occ. eigenvalues --   -0.42720  -0.42147  -0.41062  -0.40841  -0.40756
 Alpha  occ. eigenvalues --   -0.40570  -0.39765  -0.39061  -0.38694  -0.38289
 Alpha  occ. eigenvalues --   -0.37200  -0.36989  -0.36142  -0.35714  -0.35357
 Alpha  occ. eigenvalues --   -0.33822  -0.33264  -0.33100  -0.32498  -0.31092
 Alpha  occ. eigenvalues --   -0.30472  -0.30301  -0.29466  -0.27842  -0.27432
 Alpha  occ. eigenvalues --   -0.27014  -0.26831  -0.26607  -0.24452  -0.20335
 Alpha virt. eigenvalues --   -0.12175  -0.10371  -0.09436  -0.05335  -0.03021
 Alpha virt. eigenvalues --   -0.02104  -0.01914  -0.01313  -0.00941  -0.00738
 Alpha virt. eigenvalues --   -0.00385  -0.00330  -0.00253   0.00133   0.00285

 Mulliken atomic charges:
              1
     1  C   -0.468410
     2  C   -0.306372
     3  C    0.420910
     4  O   -0.292073
     5  C    0.229507
     6  C   -0.409949
     7  S    0.151308
     8  C    0.140648
     9  C   -0.239352
    10  N   -0.187313
    11  C   -0.028931
    12  C    0.232177
    13  N   -0.181727
    14  C    0.044123
    15  C   -0.259328
    16  C    0.162882
    17  N    0.011854
    18  C   -0.691499
    19  C   -0.611798
    20  C   -0.376373
    21  C   -0.024913
    22  C   -0.690389
    23  C    0.403666
    24  N   -0.410834
    25  S    0.864723
    26  N   -0.341048
    27  C    0.842554
    28  C   -0.125340
    29  N   -0.380971
    30  S    0.961071
    31  N   -0.515812
    32  C    0.503883
    33  H    0.165417
    34  H    0.188192
    35  H    0.224516
    36  H    0.157321
    37  H    0.154396
    38  H    0.251451
    39  H    0.146894
    40  H    0.123836
    41  H    0.161102
 Sum of Mulliken atomic charges =  -0.00000

 Dipole moment (field-independent basis, Debye):
    X=             -1.2965    Y=              2.7656    Z=              0.5737  Tot=              3.1079
 Quadrupole moment (field-independent basis, Debye-Ang):
   XX=           -186.4105   YY=           -193.1698   ZZ=           -202.7885
   XY=              5.5430   XZ=              7.4507   YZ=              0.9151

  Exact polarizability: 845.027  19.235 418.589  24.748   1.259 192.539
 Approx polarizability:1232.727  32.968 823.096  65.279  -1.426 337.321

                     1                      2                      3
                     A                      A                      A
 Frequencies --    16.5242                17.6334                28.3517
 Red. masses --     8.5347                 8.4945                10.0152
 Frc consts  --     0.0014                 0.0016                 0.0047
 IR Inten    --     0.0301                 0.1301                 0.0287

                     4                      5                      6
                     A                      A                      A
 Frequencies --    32.4640                40.6516                67.6750
 Red. masses --     9.6014                 7.4052                 9.0064
 Frc consts  --     0.0060                 0.0072                 0.0243
 IR Inten    --     0.0858                 0.4211                 0.4003

                     7                      8                      9
                     A                      A                      A
 Frequencies --    90.0616                97.0598               119.7595
 Red. masses --     6.1868                 8.3711                 8.3997
 Frc consts  --     0.0296                 0.0465                 0.0710
 IR Inten    --     1.2197                 0.2094                 0.1659

                    10                     11                     12
                     A                      A                      A
 Frequencies --   142.3582               161.9717               170.9759
 Red. masses --    11.6568                 7.4655                11.2749
 Frc consts  --     0.1392                 0.1154                 0.1942
 IR Inten    --     0.3605                 0.8162                 0.4668

                    13                     14                     15
                     A                      A                      A
 Frequencies --   174.8206               189.4913               197.8972
 Red. masses --     8.7608                 7.3424                 6.9612
 Frc consts  --     0.1578                 0.1553                 0.1606
 IR Inten    --     1.8848                 3.2881                 2.7781

                    16                     17                     18
                     A                      A                      A
 Frequencies --   204.0791               236.0146               254.4777
 Red. masses --     8.3263                 6.8998                 7.7182
 Frc consts  --     0.2043                 0.2264                 0.2945
 IR Inten    --     0.2650                 0.2910                 1.4816

                    19                     20                     21
                     A                      A                      A
 Frequencies --   281.3324               317.5469               343.4195
 Red. masses --     5.5575                 6.1704                10.4635
 Frc consts  --     0.2592                 0.3666                 0.7271
 IR Inten    --     1.4533                 0.4461                 0.2640

                    22                     23                     24
                     A                      A                      A
 Frequencies --   379.9149               383.4315               414.5908
 Red. masses --     7.0195                 6.2930                 7.3310
 Frc consts  --     0.5969                 0.5451                 0.7424
 IR Inten    --    14.8062                 6.4297                 1.9750

                    25                     26                     27
                     A                      A                      A
 Frequencies --   437.7723               439.9277               463.3287
 Red. masses --     9.2384                 8.3005                 8.2837
 Frc consts  --     1.0431                 0.9465                 1.0477
 IR Inten    --     7.1942                 5.6296                17.3734

                    28                     29                     30
                     A                      A                      A
 Frequencies --   481.9404               488.9437               500.0790
 Red. masses --     9.0811                14.7487                10.7638
 Frc consts  --     1.2427                 2.0774                 1.5860
 IR Inten    --    20.1456                 0.4317                 9.2227

                    31                     32                     33
                     A                      A                      A
 Frequencies --   511.4860               519.4163               549.2009
 Red. masses --     8.4231                 4.2164                10.5093
 Frc consts  --     1.2984                 0.6702                 1.8676
 IR Inten    --     2.0315                 0.0560                 3.3271

                    34                     35                     36
                     A                      A                      A
 Frequencies --   555.0415               558.2817               576.7737
 Red. masses --     4.7101                 5.2702                 4.0476
 Frc consts  --     0.8549                 0.9678                 0.7933
 IR Inten    --     0.8212                 0.4160                 0.2725

                    37                     38                     39
                     A                      A                      A
 Frequencies --   583.5483               595.5113               614.5244
 Red. masses --     5.9341                 7.7287                 7.6814
 Frc consts  --     1.1906                 1.6149                 1.7091
 IR Inten    --     8.1799                 3.5774                10.5763

                    40                     41                     42
                     A                      A                      A
 Frequencies --   617.4196               648.0466               652.9968
 Red. masses --     9.0343                 5.6228                 4.6793
 Frc consts  --     2.0291                 1.3913                 1.1756
 IR Inten    --     4.7326                 6.9771                 6.6697

                    43                     44                     45
                     A                      A                      A
 Frequencies --   666.2231               670.2645               698.7795
 Red. masses --     6.1267                 4.8722                 2.8055
 Frc consts  --     1.6022                 1.2896                 0.8071
 IR Inten    --     2.5658                 7.5845                16.0608

                    46                     47                     48
                     A                      A                      A
 Frequencies --   706.0118               710.2337               761.4019
 Red. masses --     4.8725                 3.5469                 2.2584
 Frc consts  --     1.4310                 1.0541                 0.7714
 IR Inten    --     7.0575                 8.3272                26.5907

                    49                     50                     51
                     A                      A                      A
 Frequencies --   765.5240               794.8593               798.1404
 Red. masses --    12.0268                 4.0180                 8.5810
 Frc consts  --     4.1526                 1.4957                 3.2207
 IR Inten    --     0.8227                11.7785                 2.6837

                    52                     53                     54
                     A                      A                      A
 Frequencies --   814.9467               819.4939               830.9174
 Red. masses --     3.6650                 8.4130                 1.3199
 Frc consts  --     1.4341                 3.3288                 0.5369
 IR Inten    --    27.6529                23.9103                45.2616

                    55                     56                     57
                     A                      A                      A
 Frequencies --   835.3442               840.9893               851.1379
 Red. masses --    10.6036                13.5169                12.5055
 Frc consts  --     4.3595                 5.6326                 5.3377
 IR Inten    --    60.1868                18.4745                31.7778

                    58                     59                     60
                     A                      A                      A
 Frequencies --   861.2559               877.0881               878.6004
 Red. masses --     7.8773                 1.2146                 9.4486
 Frc consts  --     3.4426                 0.5505                 4.2973
 IR Inten    --    17.2084                24.8891                 0.5003

                    61                     62                     63
                     A                      A                      A
 Frequencies --   880.7947               898.9309               906.1333
 Red. masses --     3.5212                 8.5799                 1.3357
 Frc consts  --     1.6095                 4.0850                 0.6461
 IR Inten    --    21.9083                 7.8220                 0.0189

                    64                     65                     66
                     A                      A                      A
 Frequencies --   918.0544               924.7634               929.8480
 Red. masses --     6.8795                 1.8953                 3.3993
 Frc consts  --     3.4162                 0.9550                 1.7317
 IR Inten    --    30.3783                 0.8511                 3.4781

                    67                     68                     69
                     A                      A                      A
 Frequencies --   941.6153               973.0079               974.9531
 Red. masses --     1.4754                 8.3282                 1.4601
 Frc consts  --     0.7707                 4.6455                 0.8177
 IR Inten    --     6.0490                28.5623                 0.0904

                    70                     71                     72
                     A                      A                      A
 Frequencies --   992.8302              1018.2146              1034.1745
 Red. masses --     1.3210                 5.5721                 3.4940
 Frc consts  --     0.7672                 3.4037                 2.2017
 IR Inten    --     0.7228                15.0772                34.0083

                    73                     74                     75
                     A                      A                      A
 Frequencies --  1040.4556              1050.7709              1068.9826
 Red. masses --     4.5572                 1.2947                 2.2406
 Frc consts  --     2.9067                 0.8422                 1.5085
 IR Inten    --     1.3058                39.2859                 0.6601

                    76                     77                     78
                     A                      A                      A
 Frequencies --  1090.4205              1172.3010              1177.1396
 Red. masses --     5.1672                 1.4565                 1.9801
 Frc consts  --     3.6199                 1.1793                 1.6165
 IR Inten    --    13.7546                 1.3265                 7.5661

                    79                     80                     81
                     A                      A                      A
 Frequencies --  1195.4586              1210.7314              1218.4403
 Red. masses --     2.5169                 3.0362                 2.4725
 Frc consts  --     2.1193                 2.6222                 2.1627
 IR Inten    --    17.0877                21.4882                 2.5457

                    82                     83                     84
                     A                      A                      A
 Frequencies --  1240.2063              1293.2755              1299.5721
 Red. masses --     3.1242                 4.5577                 3.5721
 Frc consts  --     2.8312                 4.4914                 3.5545
 IR Inten    --     2.6257                 0.6338                62.9881

                    85                     86                     87
                     A                      A                      A
 Frequencies --  1330.2746              1334.7738              1337.6601
 Red. masses --     2.5910                 3.4087                 3.3167
 Frc consts  --     2.7014                 3.5782                 3.4966
 IR Inten    --   169.2682                 1.8789                 4.8555

                    88                     89                     90
                     A                      A                      A
 Frequencies --  1341.3299              1354.8975              1363.5873
 Red. masses --     3.2078                 5.6182                 4.7801
 Frc consts  --     3.4004                 6.0766                 5.2367
 IR Inten    --    17.9298                41.0812                15.9584

                    91                     92                     93
                     A                      A                      A
 Frequencies --  1372.3206              1386.5589              1402.9548
 Red. masses --     3.5866                 2.6383                 1.9283
 Frc consts  --     3.9796                 2.9885                 2.2362
 IR Inten    --     5.5318                 0.4784                12.1524

                    94                     95                     96
                     A                      A                      A
 Frequencies --  1404.3741              1419.1085              1445.8681
 Red. masses --     5.6508                 5.3453                 4.0213
 Frc consts  --     6.5663                 6.3424                 4.9531
 IR Inten    --    22.3064                 5.0640                 0.7789

                    97                     98                     99
                     A                      A                      A
 Frequencies --  1457.0717              1503.6909              1531.2555
 Red. masses --     6.3764                 7.0608                 5.0284
 Frc consts  --     7.9761                 9.4063                 6.9466
 IR Inten    --     2.7410                40.7645                23.8700

                   100                    101                    102
                     A                      A                      A
 Frequencies --  1533.4428              1543.6303              1546.5466
 Red. masses --     5.3617                 5.4516                 7.1587
 Frc consts  --     7.4283                 7.6535                10.0881
 IR Inten    --    14.4701                41.8061               156.3649

                   103                    104                    105
                     A                      A                      A
 Frequencies --  1554.0148              1573.2999              1580.8231
 Red. masses --     7.0737                 6.1155                 8.3315
 Frc consts  --    10.0648                 8.9188                12.2671
 IR Inten    --    96.0876                33.4854                32.0845

                   106                    107                    108
                     A                      A                      A
 Frequencies --  1608.9940              1623.5686              1644.4334
 Red. masses --     6.2466                 7.1097                 5.7657
 Frc consts  --     9.5281                11.0418                 9.1862
 IR Inten    --    45.3440                33.2725                 2.1420

                   109                    110                    111
                     A                      A                      A
 Frequencies --  3161.9367              3178.0771              3195.7955
 Red. masses --     1.0883                 1.0942                 1.0883
 Frc consts  --     6.4107                 6.5117                 6.5487
 IR Inten    --    10.8826                53.9194                16.1859

                   112                    113                    114
                     A                      A                      A
 Frequencies --  3210.8614              3222.3661              3229.5296
 Red. masses --     1.0904                 1.0940                 1.0927
 Frc consts  --     6.6233                 6.6930                 6.7149
 IR Inten    --    20.3258                 5.1922                 2.8191

                   115                    116                    117
                     A                      A                      A
 Frequencies --  3275.8447              3287.9869              3298.7802
 Red. masses --     1.0941                 1.0935                 1.1011
 Frc consts  --     6.9174                 6.9654                 7.0596
 IR Inten    --    13.4878                 0.4131                 3.0455

 - Thermochemistry -
 -------------------
 Temperature   298.150 Kelvin.  Pressure   1.00000 Atm.
 Atom     1 has atomic number  6 and mass  12.00000

 Molecular mass:   471.00307 amu.
 Principal axes and moments of inertia in atomic units:
                           1         2         3
     Eigenvalues --  7554.42115********************
           X            0.99999   0.00068   0.00310
           Y           -0.00067   1.00000  -0.00126
           Z           -0.00310   0.00125   0.99999
 This molecule is an asymmetric top.
 Rotational symmetry number  1.
 Warning -- assumption of classical behavior for rotation
           may cause significant error
 Rotational temperatures (Kelvin)      0.01147     0.00225     0.00192
 Rotational constants (GHZ):           0.23890     0.04678     0.03994
 Zero-point vibrational energy     706064.0 (Joules/Mol)
                                  168.75335 (Kcal/Mol)
 Warning -- explicit consideration of  40 degrees of freedom as
           vibrations may cause significant error
 Vibrational temperatures:     23.77    25.37    40.79    46.71    58.49
          (Kelvin)             97.37   129.58   139.65   172.31   204.82
                              233.04   246.00   251.53   272.64   284.73
                              293.62   339.57   366.14   404.77   456.88
                              494.10   546.61   551.67   596.50   629.86
                              632.96   666.63   693.40   703.48   719.50
                              735.91   747.32   790.18   798.58   803.24
                              829.85   839.59   856.81   884.16   888.33
                              932.39   939.52   958.55   964.36  1005.39
                             1015.79  1021.87  1095.49  1101.42  1143.62
                             1148.34  1172.53  1179.07  1195.50  1201.87
                             1209.99  1224.60  1239.15  1261.93  1264.11
                             1267.27  1293.36  1303.72  1320.87  1330.53
                             1337.84  1354.77  1399.94  1402.74  1428.46
                             1464.98  1487.94  1496.98  1511.82  1538.03
                             1568.87  1686.68  1693.64  1720.00  1741.97
                             1753.06  1784.38  1860.73  1869.79  1913.97
                             1920.44  1924.59  1929.87  1949.39  1961.90
                             1974.46  1994.95  2018.54  2020.58  2041.78
                             2080.28  2096.40  2163.47  2203.13  2206.28
                             2220.94  2225.13  2235.88  2263.62  2274.45
                             2314.98  2335.95  2365.97  4549.32  4572.54
                             4598.03  4619.71  4636.26  4646.57  4713.20
                             4730.67  4746.20

 Zero-point correction=                           0.268926 (Hartree/Particle)
 Thermal correction to Energy=                    0.292508
 Thermal correction to Enthalpy=                  0.293452
 Thermal correction to Gibbs Free Energy=         0.212080
 Sum of electronic and zero-point Energies=          -2458.424433
 Sum of electronic and thermal Energies=             -2458.400851
 Sum of electronic and thermal Enthalpies=           -2458.399906
 Sum of electronic and thermal Free Energies=        -2458.481279

                     E (Thermal)             CV                S
                      KCal/Mol        Cal/Mol-Kelvin    Cal/Mol-Kelvin
 Total                  183.552             92.865            171.263
 Electronic               0.000              0.000              0.000
 Translational            0.889              2.981             44.337
 Rotational               0.889              2.981             37.818
 Vibrational            181.774             86.904             89.107
 Vibration     1          0.593              1.986              7.013
 Vibration     2          0.593              1.986              6.884
 Vibration     3          0.593              1.984              5.942
 Vibration     4          0.594              1.983              5.673
 Vibration     5          0.594              1.981              5.227
 Vibration     6          0.598              1.970              4.220
 Vibration     7          0.602              1.956              3.659
 Vibration     8          0.603              1.951              3.513
 Vibration     9          0.609              1.933              3.104
 Vibration    10          0.616              1.911              2.772
 Vibration    11          0.622              1.889              2.527
 Vibration    12          0.626              1.878              2.425
 Vibration    13          0.627              1.873              2.383
 Vibration    14          0.633              1.854              2.233
 Vibration    15          0.637              1.843              2.153
 Vibration    16          0.640              1.834              2.096
 Vibration    17          0.655              1.786              1.833
 Vibration    18          0.665              1.755              1.699
 Vibration    19          0.681              1.708              1.526
 Vibration    20          0.704              1.640              1.323
 Vibration    21          0.722              1.589              1.196
 Vibration    22          0.750              1.513              1.040
 Vibration    23          0.753              1.506              1.026
 Vibration    24          0.778              1.439              0.911
 Vibration    25          0.798              1.388              0.834
 Vibration    26          0.800              1.383              0.827
 Vibration    27          0.821              1.331              0.756
 Vibration    28          0.838              1.290              0.705
 Vibration    29          0.845              1.275              0.686
 Vibration    30          0.855              1.250              0.658
 Vibration    31          0.867              1.225              0.630
 Vibration    32          0.874              1.207              0.611
 Vibration    33          0.904              1.141              0.546
 Vibration    34          0.910              1.129              0.534
 Vibration    35          0.914              1.122              0.527
 Vibration    36          0.933              1.082              0.491
 Vibration    37          0.940              1.067              0.479
 Vibration    38          0.953              1.041              0.457
 Vibration    39          0.974              1.001              0.425
 Vibration    40          0.977              0.995              0.421

 Optimization completed.
    -- Stationary point found.
 Normal termination of Gaussian 09 at Sun Dec 29 22:45:27 2013.
