 Gaussian 09, Revision C.01,
 Gaussian 09:  EM64L-G09RevC.01 23-Sep-2011

 --------------------------------------------
 #B3LYP/6-31++G(d,p) opt scf=direct freq test
 --------------------------------------------

 Geom opt of No.30 candidate from the CEPDB database with SMILE code of
  [SiH2]1ccc2c1c(sc2-c1cccnc1)-c1ccc([nH]1)-c1cncc2nsnc12, HPC, 2013122
 7, Shuo Dai, Gaussian09
 ----------------------------------------------------------------------
 Charge =  0 Multiplicity = 1

 SCF Done:  E(RB3LYP) =  -2129.56751354     A.U. after   23 cycles
 SCF Done:  E(RB3LYP) =  -2129.59365249     A.U. after   14 cycles
 SCF Done:  E(RB3LYP) =  -2129.59953903     A.U. after   17 cycles
 SCF Done:  E(RB3LYP) =  -2129.60030324     A.U. after   15 cycles
 SCF Done:  E(RB3LYP) =  -2129.60050443     A.U. after   14 cycles
 SCF Done:  E(RB3LYP) =  -2129.60055073     A.U. after   14 cycles
 SCF Done:  E(RB3LYP) =  -2129.60056482     A.U. after   13 cycles
 SCF Done:  E(RB3LYP) =  -2129.60057105     A.U. after   12 cycles
 SCF Done:  E(RB3LYP) =  -2129.60057478     A.U. after   13 cycles
 SCF Done:  E(RB3LYP) =  -2129.60058146     A.U. after   14 cycles
 SCF Done:  E(RB3LYP) =  -2129.60098536     A.U. after   13 cycles
 SCF Done:  E(RB3LYP) =  -2129.60099616     A.U. after   14 cycles
 SCF Done:  E(RB3LYP) =  -2129.60100423     A.U. after   13 cycles
 SCF Done:  E(RB3LYP) =  -2129.60101157     A.U. after   14 cycles
 SCF Done:  E(RB3LYP) =  -2129.60102004     A.U. after   14 cycles
 SCF Done:  E(RB3LYP) =  -2129.60102332     A.U. after   12 cycles
 SCF Done:  E(RB3LYP) =  -2129.60102422     A.U. after   11 cycles
 SCF Done:  E(RB3LYP) =  -2129.60102453     A.U. after   12 cycles
 SCF Done:  E(RB3LYP) =  -2129.60102461     A.U. after   11 cycles
 Optimization completed.
    -- Stationary point found.
 Normal termination of Gaussian 09 at Sun Dec 29 06:54:59 2013.

 ----------------------------------------------------------------------
 #N Geom=AllCheck Guess=TCheck SCRF=Check Test GenChk RB3LYP/6-31++G(d,
 p) Freq
 ----------------------------------------------------------------------

 Geom opt of No.30 candidate from the CEPDB database with SMILE code of
  [SiH2]1ccc2c1c(sc2-c1cccnc1)-c1ccc([nH]1)-c1cncc2nsnc12, HPC, 2013122
 7, Shuo Dai, Gaussian09
 ----------------------------------------------------------------------
 Charge =  0 Multiplicity = 1

                         Standard orientation:
 ---------------------------------------------------------------------
 Center     Atomic      Atomic             Coordinates (Angstroms)
 Number     Number       Type             X           Y           Z
 ---------------------------------------------------------------------
      1         14           0        2.209611    3.507485    0.369552
      2          1           0        1.469448    3.949630    1.579847
      3          1           0        1.766733    4.349193   -0.773690
      4          6           0        4.074965    3.417323    0.587695
      5          6           0        4.494934    2.138986    0.427933
      6          6           0        3.460133    1.140233    0.116586
      7          6           0        2.114158    1.659546    0.050664
      8          6           0        1.172820    0.680494   -0.160755
      9         16           0        1.943852   -0.901666   -0.310180
     10          6           0        3.548635   -0.229028   -0.045695
     11          6           0        4.724768   -1.105930   -0.036190
     12          6           0        4.721138   -2.362848    0.593384
     13          6           0        5.873951   -3.142818    0.569218
     14          6           0        7.008404   -2.644805   -0.076488
     15          7           0        7.034518   -1.456830   -0.696228
     16          6           0        5.918916   -0.722451   -0.681233
     17          6           0       -0.261736    0.814265   -0.282137
     18          6           0       -1.039303    1.925295   -0.612577
     19          6           0       -2.392634    1.534732   -0.570684
     20          6           0       -2.442443    0.182849   -0.222314
     21          7           0       -1.131158   -0.233338   -0.064309
     22          1           0       -0.851335   -1.126528    0.311195
     23          6           0       -3.566251   -0.718577   -0.057953
     24          6           0       -3.421228   -2.096686    0.069776
     25          7           0       -4.423187   -3.007201    0.247817
     26          6           0       -5.671152   -2.602563    0.297084
     27          6           0       -5.992686   -1.218832    0.165302
     28          7           0       -7.218632   -0.678451    0.192146
     29         16           0       -7.009818    0.937563    0.003356
     30          7           0       -5.371116    1.004849   -0.116862
     31          6           0       -4.929163   -0.254811   -0.013633
     32          1           0        4.773927    4.212757    0.826570
     33          1           0        5.533905    1.837254    0.534340
     34          1           0        3.830462   -2.711351    1.108343
     35          1           0        5.899618   -4.114924    1.051631
     36          1           0        7.930013   -3.221479   -0.104189
     37          1           0        5.958320    0.217531   -1.226216
     38          1           0       -0.657754    2.897850   -0.887717
     39          1           0       -3.254154    2.147978   -0.782619
     40          1           0       -2.433055   -2.545138    0.013991
     41          1           0       -6.455548   -3.341363    0.438109
 ---------------------------------------------------------------------

 SCF Done:  E(RB3LYP) =  -2129.60102461     A.U. after    2 cycles

 The electronic state is 1-A.
 Alpha  occ. eigenvalues --  -88.99853 -88.93123 -66.14556 -14.40768 -14.39742
 Alpha  occ. eigenvalues --  -14.39427 -14.36207 -14.35098 -10.26989 -10.26355
 Alpha  occ. eigenvalues --  -10.25329 -10.25154 -10.25099 -10.24688 -10.24652
 Alpha  occ. eigenvalues --  -10.24637 -10.24373 -10.24109 -10.23908 -10.23442
 Alpha  occ. eigenvalues --  -10.22734 -10.22157 -10.22107 -10.21807 -10.20055
 Alpha  occ. eigenvalues --  -10.19910 -10.19881 -10.19473  -8.05175  -7.99010
 Alpha  occ. eigenvalues --   -6.01727  -6.01143  -6.00939  -5.95460  -5.95076
 Alpha  occ. eigenvalues --   -5.94694  -5.29277  -3.65179  -3.65113  -3.65102
 Alpha  occ. eigenvalues --   -1.04348  -1.00853  -0.96298  -0.95913  -0.91580
 Alpha  occ. eigenvalues --   -0.90565  -0.83760  -0.83059  -0.81812  -0.80470
 Alpha  occ. eigenvalues --   -0.79678  -0.79201  -0.76209  -0.72774  -0.71813
 Alpha  occ. eigenvalues --   -0.68628  -0.65747  -0.65205  -0.64753  -0.63532
 Alpha  occ. eigenvalues --   -0.61770  -0.61445  -0.59062  -0.58716  -0.55971
 Alpha  occ. eigenvalues --   -0.54779  -0.53547  -0.53210  -0.52038  -0.50998
 Alpha  occ. eigenvalues --   -0.49511  -0.49163  -0.47869  -0.47707  -0.46580
 Alpha  occ. eigenvalues --   -0.45747  -0.44590  -0.44435  -0.43728  -0.43044
 Alpha  occ. eigenvalues --   -0.42165  -0.41961  -0.41378  -0.40957  -0.40740
 Alpha  occ. eigenvalues --   -0.40169  -0.40115  -0.39875  -0.38667  -0.37552
 Alpha  occ. eigenvalues --   -0.36288  -0.35850  -0.35083  -0.34396  -0.32406
 Alpha  occ. eigenvalues --   -0.32312  -0.32033  -0.30988  -0.30298  -0.29483
 Alpha  occ. eigenvalues --   -0.28441  -0.28150  -0.27417  -0.27254  -0.26029
 Alpha  occ. eigenvalues --   -0.24054  -0.20496
 Alpha virt. eigenvalues --   -0.11597  -0.07418  -0.05710  -0.04712  -0.02980
 Alpha virt. eigenvalues --   -0.02629  -0.02012  -0.01923  -0.01722  -0.01093
 Alpha virt. eigenvalues --   -0.00446  -0.00054   0.00372   0.00562   0.01212

 Mulliken atomic charges:
              1
     1  Si   0.963485
     2  H   -0.097867
     3  H   -0.106861
     4  C   -0.313668
     5  C   -0.304494
     6  C    1.142646
     7  C   -0.279871
     8  C   -0.987615
     9  S   -0.170029
    10  C   -0.573994
    11  C    0.768197
    12  C    0.062188
    13  C    0.007263
    14  C   -0.161947
    15  N   -0.068645
    16  C   -0.844039
    17  C    0.245982
    18  C   -0.319176
    19  C   -0.193174
    20  C    0.185291
    21  N   -0.172994
    22  H    0.332360
    23  C    0.070391
    24  C   -0.632308
    25  N   -0.109330
    26  C   -0.193213
    27  C    0.679255
    28  N   -0.428265
    29  S    0.848229
    30  N   -0.467142
    31  C   -0.374495
    32  H    0.152089
    33  H    0.110875
    34  H    0.133387
    35  H    0.140666
    36  H    0.146965
    37  H    0.176138
    38  H    0.105707
    39  H    0.180225
    40  H    0.166814
    41  H    0.180970
 Sum of Mulliken atomic charges =  -0.00000

 Dipole moment (field-independent basis, Debye):
    X=             -0.0087    Y=              0.3607    Z=              1.3828  Tot=              1.4291
 Quadrupole moment (field-independent basis, Debye-Ang):
   XX=           -193.9148   YY=           -175.2244   ZZ=           -188.1990
   XY=            -11.4097   XZ=              9.4795   YZ=             -3.9916

  Exact polarizability: 660.783   3.888 406.597  -6.736 -11.431 178.182
 Approx polarizability: 905.689  22.557 763.905 -21.724 -35.157 300.969

                     1                      2                      3
                     A                      A                      A
 Frequencies --    12.2283                18.6107                29.6873
 Red. masses --     9.8798                 7.1738                 7.4302
 Frc consts  --     0.0009                 0.0015                 0.0039
 IR Inten    --     0.1235                 0.1678                 0.3613

                     4                      5                      6
                     A                      A                      A
 Frequencies --    46.0120                50.3429                78.8060
 Red. masses --     5.3494                 5.5816                 6.0428
 Frc consts  --     0.0067                 0.0083                 0.0221
 IR Inten    --     1.3287                 0.3298                 0.3413

                     7                      8                      9
                     A                      A                      A
 Frequencies --    81.4613                93.9231               112.6721
 Red. masses --     4.6903                 4.9340                 7.6810
 Frc consts  --     0.0183                 0.0256                 0.0575
 IR Inten    --     0.1769                 0.5983                 0.1346

                    10                     11                     12
                     A                      A                      A
 Frequencies --   139.4191               157.2406               172.6058
 Red. masses --     8.1121                 5.0323                 6.1068
 Frc consts  --     0.0929                 0.0733                 0.1072
 IR Inten    --     0.1977                 0.4758                 0.6202

                    13                     14                     15
                     A                      A                      A
 Frequencies --   184.3591               209.8456               239.6282
 Red. masses --     5.8920                 6.6486                 6.0758
 Frc consts  --     0.1180                 0.1725                 0.2056
 IR Inten    --     0.2383                 0.1664                 0.2099

                    16                     17                     18
                     A                      A                      A
 Frequencies --   243.3165               268.8232               299.7774
 Red. masses --     6.0547                 5.4355                 4.9923
 Frc consts  --     0.2112                 0.2314                 0.2643
 IR Inten    --     1.0021                 0.9079                 1.5713

                    19                     20                     21
                     A                      A                      A
 Frequencies --   328.2909               336.6006               358.4097
 Red. masses --     6.9413                 2.9502                 5.5472
 Frc consts  --     0.4408                 0.1969                 0.4198
 IR Inten    --     2.7144                 0.9417                 1.9904

                    22                     23                     24
                     A                      A                      A
 Frequencies --   382.2619               410.1102               419.8590
 Red. masses --     6.3968                 3.6505                 5.4050
 Frc consts  --     0.5507                 0.3617                 0.5614
 IR Inten    --     2.5516                 2.6878                 3.5654

                    25                     26                     27
                     A                      A                      A
 Frequencies --   438.1237               460.9291               477.1958
 Red. masses --     6.0972                 5.2628                 1.7690
 Frc consts  --     0.6896                 0.6588                 0.2373
 IR Inten    --     0.8183                20.6530                30.7275

                    28                     29                     30
                     A                      A                      A
 Frequencies --   479.3504               503.4828               511.3951
 Red. masses --     6.2994                 5.7066                 4.1993
 Frc consts  --     0.8528                 0.8523                 0.6471
 IR Inten    --     3.9991                 4.4115                 3.7766

                    31                     32                     33
                     A                      A                      A
 Frequencies --   542.1665               544.0684               563.1352
 Red. masses --     5.4291                10.1530                 3.3881
 Frc consts  --     0.9403                 1.7707                 0.6330
 IR Inten    --    17.5654                 0.3374                23.3784

                    34                     35                     36
                     A                      A                      A
 Frequencies --   586.3914               589.4719               602.4561
 Red. masses --     4.4246                 5.2407                 1.6435
 Frc consts  --     0.8964                 1.0729                 0.3515
 IR Inten    --    14.1120                 0.8284                 0.2535

                    37                     38                     39
                     A                      A                      A
 Frequencies --   625.3392               625.8251               631.6468
 Red. masses --     4.9365                 6.0090                 2.7735
 Frc consts  --     1.1374                 1.3866                 0.6520
 IR Inten    --     1.7474                 2.0581                23.0610

                    40                     41                     42
                     A                      A                      A
 Frequencies --   655.5937               671.2920               689.7496
 Red. masses --     7.5558                 4.1114                 4.0199
 Frc consts  --     1.9134                 1.0916                 1.1268
 IR Inten    --    13.3641                 2.1213                16.6363

                    43                     44                     45
                     A                      A                      A
 Frequencies --   717.1378               723.4972               726.9875
 Red. masses --     2.3982                 2.1126                 5.9813
 Frc consts  --     0.7267                 0.6515                 1.8625
 IR Inten    --    15.4217                28.1223                 2.8103

                    46                     47                     48
                     A                      A                      A
 Frequencies --   731.0422               740.7607               774.6193
 Red. masses --     1.8748                 2.6905                 4.6920
 Frc consts  --     0.5903                 0.8698                 1.6588
 IR Inten    --     4.9177                30.0733                 0.2082

                    49                     50                     51
                     A                      A                      A
 Frequencies --   795.0702               801.0444               812.5337
 Red. masses --     1.8272                 1.5491                 2.2435
 Frc consts  --     0.6805                 0.5857                 0.8727
 IR Inten    --    44.2550                56.0130                 8.9416

                    52                     53                     54
                     A                      A                      A
 Frequencies --   826.5703               827.0959               837.9370
 Red. masses --     2.7062                10.8006                13.5406
 Frc consts  --     1.0894                 4.3532                 5.6016
 IR Inten    --    20.7397                22.8694                56.3065

                    55                     56                     57
                     A                      A                      A
 Frequencies --   868.5231               879.2383               880.9343
 Red. masses --     2.9470                 1.5315                 6.3189
 Frc consts  --     1.3098                 0.6975                 2.8892
 IR Inten    --   117.3307                27.6989                63.6756

                    58                     59                     60
                     A                      A                      A
 Frequencies --   884.1399               896.9940               913.5196
 Red. masses --     5.1255                 1.4076                 7.0597
 Frc consts  --     2.3606                 0.6673                 3.4712
 IR Inten    --    33.1530                 2.8819                10.0354

                    61                     62                     63
                     A                      A                      A
 Frequencies --   929.4940               934.0966               948.3492
 Red. masses --     1.5142                 5.3655                 1.3463
 Frc consts  --     0.7708                 2.7583                 0.7134
 IR Inten    --     0.1294                 0.5891                 2.0366

                    64                     65                     66
                     A                      A                      A
 Frequencies --   970.8457               974.0806               999.0952
 Red. masses --     1.0626                 1.4976                 1.2988
 Frc consts  --     0.5901                 0.8372                 0.7638
 IR Inten    --   147.1359                 1.0134                 0.3630

                    67                     68                     69
                     A                      A                      A
 Frequencies --  1003.2543              1010.0605              1033.6372
 Red. masses --     1.3803                 4.8123                 3.8668
 Frc consts  --     0.8186                 2.8927                 2.4341
 IR Inten    --     0.5147                21.2033                 2.3137

                    70                     71                     72
                     A                      A                      A
 Frequencies --  1035.1903              1063.2642              1077.7214
 Red. masses --     4.5094                 3.1807                 2.1606
 Frc consts  --     2.8471                 2.1186                 1.4786
 IR Inten    --    12.3987                 3.2916                10.2239

                    73                     74                     75
                     A                      A                      A
 Frequencies --  1079.1767              1123.2302              1138.9949
 Red. masses --     1.3436                 1.2621                 3.4105
 Frc consts  --     0.9220                 0.9382                 2.6069
 IR Inten    --    38.3203                 7.3974                 9.0464

                    76                     77                     78
                     A                      A                      A
 Frequencies --  1146.3897              1202.4694              1226.6041
 Red. masses --     1.4292                 2.7589                 1.5096
 Frc consts  --     1.1066                 2.3503                 1.3382
 IR Inten    --     6.0279                49.0983                10.8551

                    79                     80                     81
                     A                      A                      A
 Frequencies --  1271.2525              1276.7656              1288.6786
 Red. masses --     1.7442                 2.8409                 4.5723
 Frc consts  --     1.6607                 2.7285                 4.4737
 IR Inten    --    15.0929                35.3160                35.3902

                    82                     83                     84
                     A                      A                      A
 Frequencies --  1294.8002              1308.3992              1323.3399
 Red. masses --     4.0705                 3.0934                 2.6303
 Frc consts  --     4.0207                 3.1201                 2.7139
 IR Inten    --    70.2692                11.5241                40.5670

                    85                     86                     87
                     A                      A                      A
 Frequencies --  1338.7336              1360.4436              1365.9093
 Red. masses --     2.5171                 2.1964                 6.0178
 Frc consts  --     2.6579                 2.3951                 6.6150
 IR Inten    --    51.4946                 1.1246                41.1293

                    88                     89                     90
                     A                      A                      A
 Frequencies --  1369.2218              1371.7069              1399.5221
 Red. masses --     1.4284                 5.2707                 2.4147
 Frc consts  --     1.5778                 5.8430                 2.7866
 IR Inten    --     3.3693                14.0215                 2.1163

                    91                     92                     93
                     A                      A                      A
 Frequencies --  1443.9760              1449.6369              1453.2401
 Red. masses --     3.6847                 2.5488                 3.6313
 Frc consts  --     4.5267                 3.1558                 4.5184
 IR Inten    --    14.4862                27.7529                 2.7581

                    94                     95                     96
                     A                      A                      A
 Frequencies --  1487.3532              1500.7801              1514.0384
 Red. masses --     5.2511                 2.7369                 6.6167
 Frc consts  --     6.8442                 3.6320                 8.9364
 IR Inten    --   103.5868                38.2356                30.3388

                    97                     98                     99
                     A                      A                      A
 Frequencies --  1536.0819              1546.8040              1568.9247
 Red. masses --     5.3286                 5.6277                 7.8928
 Frc consts  --     7.4079                 7.9333                11.4468
 IR Inten    --   126.1049               166.9513                 7.5626

                   100                    101                    102
                     A                      A                      A
 Frequencies --  1593.9553              1600.0374              1607.3607
 Red. masses --     5.5882                 5.7847                 6.0104
 Frc consts  --     8.3651                 8.7255                 9.1492
 IR Inten    --    30.0831                 9.3203                12.0460

                   103                    104                    105
                     A                      A                      A
 Frequencies --  1626.2040              1631.2154              2220.6430
 Red. masses --     4.8696                 5.7424                 1.0448
 Frc consts  --     7.5875                 9.0026                 3.0356
 IR Inten    --   104.2183                 6.1200               134.8554

                   106                    107                    108
                     A                      A                      A
 Frequencies --  2230.1881              3176.1558              3178.7799
 Red. masses --     1.0366                 1.0876                 1.0896
 Frc consts  --     3.0378                 6.4646                 6.4870
 IR Inten    --   132.5824                22.0334                 4.5946

                   109                    110                    111
                     A                      A                      A
 Frequencies --  3179.2451              3184.4992              3191.5595
 Red. masses --     1.0884                 1.0888                 1.0901
 Frc consts  --     6.4817                 6.5056                 6.5420
 IR Inten    --    33.6926                 3.7755                13.5726

                   112                    113                    114
                     A                      A                      A
 Frequencies --  3192.5213              3208.4698              3209.7198
 Red. masses --     1.0924                 1.0960                 1.0971
 Frc consts  --     6.5597                 6.6477                 6.6591
 IR Inten    --     1.6244                12.6812                16.2319

                   115                    116                    117
                     A                      A                      A
 Frequencies --  3265.4746              3295.0106              3665.4345
 Red. masses --     1.0944                 1.0983                 1.0801
 Frc consts  --     6.8756                 7.0258                 8.5499
 IR Inten    --     3.1513                 0.7768                30.4033

 - Thermochemistry -
 -------------------
 Temperature   298.150 Kelvin.  Pressure   1.00000 Atm.
 Atom     1 has atomic number 14 and mass  27.97693

 Molecular mass:   415.03817 amu.
 Principal axes and moments of inertia in atomic units:
                           1         2         3
     Eigenvalues --  5486.80388********************
           X            1.00000   0.00068   0.00121
           Y           -0.00067   0.99999  -0.00417
           Z           -0.00121   0.00416   0.99999
 This molecule is an asymmetric top.
 Rotational symmetry number  1.
 Warning -- assumption of classical behavior for rotation
           may cause significant error
 Rotational temperatures (Kelvin)      0.01579     0.00282     0.00242
 Rotational constants (GHZ):           0.32892     0.05882     0.05046
 Zero-point vibrational energy     754434.4 (Joules/Mol)
                                  180.31415 (Kcal/Mol)
 Warning -- explicit consideration of  36 degrees of freedom as
           vibrations may cause significant error
 Vibrational temperatures:     17.59    26.78    42.71    66.20    72.43
          (Kelvin)            113.38   117.20   135.13   162.11   200.59
                              226.23   248.34   265.25   301.92   344.77
                              350.08   386.78   431.31   472.34   484.29
                              515.67   549.99   590.06   604.08   630.36
                              663.17   686.58   689.68   724.40   735.78
                              780.06   782.79   810.22   843.69   848.12
                              866.80   899.72   900.42   908.80   943.25
                              965.84   992.39  1031.80  1040.95  1045.97
                             1051.81  1065.79  1114.50  1143.93  1152.52
                             1169.05  1189.25  1190.01  1205.60  1249.61
                             1265.03  1267.47  1272.08  1290.57  1314.35
                             1337.33  1343.95  1364.46  1396.83  1401.48
                             1437.47  1443.46  1453.25  1487.17  1489.41
                             1529.80  1550.60  1552.69  1616.08  1638.76
                             1649.40  1730.08  1764.81  1829.05  1836.98
                             1854.12  1862.93  1882.49  1903.99  1926.14
                             1957.37  1965.24  1970.00  1973.58  2013.60
                             2077.56  2085.70  2090.89  2139.97  2159.29
                             2178.36  2210.08  2225.50  2257.33  2293.34
                             2302.09  2312.63  2339.74  2346.95  3195.01
                             3208.74  4569.77  4573.55  4574.22  4581.78
                             4591.94  4593.32  4616.27  4618.07  4698.28
                             4740.78  5273.74

 Zero-point correction=                           0.287349 (Hartree/Particle)
 Thermal correction to Energy=                    0.309953
 Thermal correction to Enthalpy=                  0.310897
 Thermal correction to Gibbs Free Energy=         0.232061
 Sum of electronic and zero-point Energies=          -2129.313676
 Sum of electronic and thermal Energies=             -2129.291072
 Sum of electronic and thermal Enthalpies=           -2129.290128
 Sum of electronic and thermal Free Energies=        -2129.368963

                     E (Thermal)             CV                S
                      KCal/Mol        Cal/Mol-Kelvin    Cal/Mol-Kelvin
 Total                  194.498             89.122            165.924
 Electronic               0.000              0.000              0.000
 Translational            0.889              2.981             43.960
 Rotational               0.889              2.981             37.041
 Vibrational            192.721             83.160             84.922
 Vibration     1          0.593              1.987              7.611
 Vibration     2          0.593              1.986              6.777
 Vibration     3          0.593              1.984              5.850
 Vibration     4          0.595              1.979              4.982
 Vibration     5          0.595              1.977              4.804
 Vibration     6          0.600              1.963              3.920
 Vibration     7          0.600              1.962              3.855
 Vibration     8          0.603              1.954              3.577
 Vibration     9          0.607              1.939              3.222
 Vibration    10          0.615              1.914              2.812
 Vibration    11          0.621              1.895              2.583
 Vibration    12          0.626              1.876              2.407
 Vibration    13          0.631              1.861              2.284
 Vibration    14          0.642              1.826              2.045
 Vibration    15          0.657              1.780              1.806
 Vibration    16          0.659              1.774              1.779
 Vibration    17          0.673              1.730              1.604
 Vibration    18          0.692              1.674              1.418
 Vibration    19          0.712              1.619              1.268
 Vibration    20          0.717              1.602              1.228
 Vibration    21          0.733              1.558              1.129
 Vibration    22          0.752              1.508              1.030
 Vibration    23          0.774              1.448              0.926
 Vibration    24          0.783              1.427              0.892
 Vibration    25          0.798              1.387              0.833
 Vibration    26          0.819              1.337              0.763
 Vibration    27          0.834              1.301              0.718
 Vibration    28          0.836              1.296              0.712
 Vibration    29          0.859              1.242              0.649
 Vibration    30          0.867              1.225              0.630
 Vibration    31          0.897              1.157              0.561
 Vibration    32          0.899              1.153              0.557
 Vibration    33          0.919              1.111              0.518
 Vibration    34          0.943              1.061              0.474
 Vibration    35          0.947              1.054              0.468
 Vibration    36          0.961              1.027              0.445

 Normal termination of Gaussian 09 at Sun Dec 29 08:40:33 2013.
