 Gaussian 09, Revision C.01,
 Gaussian 09:  EM64L-G09RevC.01 23-Sep-2011

 --------------------------------------------
 #B3LYP/6-31++G(d,p) opt scf=direct freq test
 --------------------------------------------

 Geom opt of No.93 candidate from the CEPDB database with SMILE code of
  c1cc2c3c[nH]cc3c3c4oc(cc4ncc3c2[Se]1)-c1cncc2nsnc12, HPC, 20131227, S
 huo Dai, Gaussian09
 ----------------------------------------------------------------------
 Charge =  0 Multiplicity = 1

 SCF Done:  E(RB3LYP) =  -3913.47269960     A.U. after   35 cycles
 SCF Done:  E(RB3LYP) =  -3913.62945632     A.U. after   32 cycles
 SCF Done:  E(RB3LYP) =  -3913.77626336     A.U. after   36 cycles
 SCF Done:  E(RB3LYP) =  -3913.83260442     A.U. after   29 cycles
 SCF Done:  E(RB3LYP) =  -3913.85087063     A.U. after   25 cycles
 SCF Done:  E(RB3LYP) =  -3913.86179559     A.U. after   23 cycles
 SCF Done:  E(RB3LYP) =  -3913.86050467     A.U. after   24 cycles
 SCF Done:  E(RB3LYP) =  -3913.86574549     A.U. after   24 cycles
 SCF Done:  E(RB3LYP) =  -3913.86338562     A.U. after   24 cycles
 SCF Done:  E(RB3LYP) =  -3913.87582559     A.U. after   24 cycles
 SCF Done:  E(RB3LYP) =  -3913.89215007     A.U. after   18 cycles
 SCF Done:  E(RB3LYP) =  -3913.89216224     A.U. after   18 cycles
 SCF Done:  E(RB3LYP) =  -3913.89218028     A.U. after   19 cycles
 SCF Done:  E(RB3LYP) =  -3913.89218577     A.U. after   13 cycles
 SCF Done:  E(RB3LYP) =  -3913.89218816     A.U. after   13 cycles
 SCF Done:  E(RB3LYP) =  -3913.89218856     A.U. after   12 cycles
 SCF Done:  E(RB3LYP) =  -3913.89218732     A.U. after   13 cycles
 SCF Done:  E(RB3LYP) =  -3913.89218598     A.U. after   13 cycles
 SCF Done:  E(RB3LYP) =  -3913.89218511     A.U. after   11 cycles
 Optimization completed.
    -- Stationary point found.
 Normal termination of Gaussian 09 at Mon Dec 30 08:45:43 2013.

 ----------------------------------------------------------------------
 #N Geom=AllCheck Guess=TCheck SCRF=Check Test GenChk RB3LYP/6-31++G(d,
 p) Freq
 ----------------------------------------------------------------------

 Geom opt of No.93 candidate from the CEPDB database with SMILE code of
  c1cc2c3c[nH]cc3c3c4oc(cc4ncc3c2[Se]1)-c1cncc2nsnc12, HPC, 20131227, S
 huo Dai, Gaussian09
 ----------------------------------------------------------------------
 Charge =  0 Multiplicity = 1

                         Standard orientation:
 ---------------------------------------------------------------------
 Center     Atomic      Atomic             Coordinates (Angstroms)
 Number     Number       Type             X           Y           Z
 ---------------------------------------------------------------------
      1          6           0       -5.507653   -0.515102    0.564734
      2          6           0       -4.609397   -0.102934   -0.532666
      3          6           0       -3.528976    0.932685   -0.299353
      4          6           0       -2.712639    2.054974   -0.147837
      5          6           0       -3.229477    3.424396    0.009598
      6          7           0       -4.468361    3.660088   -0.219467
      7          1           0       -4.686538    4.639491   -0.019672
      8          6           0       -0.459025    2.892650   -0.268314
      9          6           0       -1.298630    1.760500   -0.182841
     10          6           0       -0.850972    0.356079   -0.232646
     11          6           0        0.479423   -0.080782   -0.182156
     12          8           0        1.600071    0.682332   -0.040800
     13          6           0        2.682874   -0.181958   -0.059647
     14          6           0        2.267495   -1.481171   -0.203312
     15          6           0        0.841362   -1.437883   -0.278086
     16          7           0       -0.043738   -2.459232   -0.411037
     17          6           0       -1.312791   -2.104329   -0.438229
     18          6           0       -1.771704   -0.755904   -0.349525
     19          6           0       -3.105716   -0.324371   -0.377824
     20         34           0       -7.038764   -1.339682    0.368887
     21          6           0        3.988542    0.429440    0.084429
     22          6           0        4.150198    1.800553    0.230968
     23          7           0        5.343933    2.454273    0.371829
     24          6           0        6.463064    1.769164    0.375461
     25          6           0        6.457128    0.348365    0.234421
     26          7           0        7.525986   -0.459444    0.221935
     27         16           0        6.947237   -1.980573    0.033229
     28          7           0        5.332480   -1.669676   -0.038483
     29          6           0        5.198674   -0.343234    0.085462
     30          1           0       -5.135465   -0.275849    1.563680
     31          1           0       -5.040960   -0.205032   -1.529747
     32          1           0       -2.493216    4.162370    0.335493
     33          1           0        0.504800    2.632083   -0.727873
     34          1           0        2.902794   -2.351643   -0.243241
     35          1           0       -2.050549   -2.899270   -0.524431
     36          1           0        3.276322    2.442649    0.240838
     37          1           0        7.401657    2.306012    0.488279
 ---------------------------------------------------------------------

 SCF Done:  E(RB3LYP) =  -3913.89218511     A.U. after    2 cycles

 The electronic state is 1-A.
 Alpha  occ. eigenvalues -- -453.86948 -89.01271 -57.47009 -52.14477 -52.14388
 Alpha  occ. eigenvalues --  -52.14083 -19.25713 -14.41214 -14.40768 -14.37473
 Alpha  occ. eigenvalues --  -14.37116 -14.34972 -10.29666 -10.28851 -10.28462
 Alpha  occ. eigenvalues --  -10.27761 -10.27443 -10.27397 -10.26952 -10.26388
 Alpha  occ. eigenvalues --  -10.26384 -10.26253 -10.26171 -10.26166 -10.25873
 Alpha  occ. eigenvalues --  -10.25695 -10.25430 -10.25390 -10.24173 -10.23836
 Alpha  occ. eigenvalues --  -10.22487 -10.21297  -8.06579  -7.71604  -6.03129
 Alpha  occ. eigenvalues --   -6.02542  -6.02349  -5.75773  -5.75764  -5.74600
 Alpha  occ. eigenvalues --   -2.11678  -2.11569  -2.10638  -2.10620  -2.10339
 Alpha  occ. eigenvalues --   -1.15332  -1.05782  -0.98195  -0.97765  -0.95024
 Alpha  occ. eigenvalues --   -0.93053  -0.92413  -0.87715  -0.85410  -0.83275
 Alpha  occ. eigenvalues --   -0.82224  -0.81394  -0.79750  -0.77490  -0.73368
 Alpha  occ. eigenvalues --   -0.70933  -0.69240  -0.68379  -0.66673  -0.65346
 Alpha  occ. eigenvalues --   -0.64130  -0.62431  -0.61928  -0.58869  -0.58250
 Alpha  occ. eigenvalues --   -0.56431  -0.55430  -0.55145  -0.53863  -0.53258
 Alpha  occ. eigenvalues --   -0.50943  -0.50637  -0.49932  -0.49150  -0.48843
 Alpha  occ. eigenvalues --   -0.48396  -0.46898  -0.46530  -0.44641  -0.44006
 Alpha  occ. eigenvalues --   -0.43562  -0.42917  -0.42572  -0.41949  -0.41419
 Alpha  occ. eigenvalues --   -0.41233  -0.40070  -0.39922  -0.37704  -0.37656
 Alpha  occ. eigenvalues --   -0.36522  -0.35981  -0.34506  -0.33824  -0.32690
 Alpha  occ. eigenvalues --   -0.32047  -0.31080  -0.29536  -0.29492  -0.29270
 Alpha  occ. eigenvalues --   -0.29105  -0.28883  -0.28172  -0.24599  -0.22950
 Alpha  occ. eigenvalues --   -0.21765
 Alpha virt. eigenvalues --   -0.14050  -0.12975  -0.10847  -0.09156  -0.05746
 Alpha virt. eigenvalues --   -0.04645  -0.03826  -0.03028  -0.01548  -0.01188
 Alpha virt. eigenvalues --   -0.00901  -0.00046   0.00534   0.00842   0.00889

 Mulliken atomic charges:
              1
     1  C   -0.688059
     2  C    1.292355
     3  C   -0.549397
     4  C    0.100539
     5  C    0.434022
     6  N   -0.348265
     7  H    0.302259
     8  C   -1.272181
     9  C    0.647263
    10  C    0.138106
    11  C    0.294993
    12  O   -0.367112
    13  C    0.573150
    14  C   -0.418575
    15  C   -0.507458
    16  N   -0.177948
    17  C    0.153901
    18  C   -0.267256
    19  C   -0.427044
    20  Se   0.070019
    21  C   -0.162084
    22  C   -0.266297
    23  N   -0.082078
    24  C   -0.310027
    25  C    0.391862
    26  N   -0.400366
    27  S    0.880844
    28  N   -0.477738
    29  C   -0.143839
    30  H    0.124709
    31  H    0.244636
    32  H    0.194377
    33  H    0.139523
    34  H    0.238725
    35  H    0.175943
    36  H    0.283244
    37  H    0.185253
 Sum of Mulliken atomic charges =  -0.00000

 Dipole moment (field-independent basis, Debye):
    X=              3.1277    Y=             -1.3828    Z=              0.0205  Tot=              3.4198
 Quadrupole moment (field-independent basis, Debye-Ang):
   XX=           -186.2078   YY=           -187.2821   ZZ=           -179.1993
   XY=            -12.3643   XZ=             -1.0836   YZ=              1.2009

  Exact polarizability: 661.888   3.900 370.563   8.401   8.677 163.351
 Approx polarizability: 933.861  49.103 741.997  22.391  28.747 268.759

                     1                      2                      3
                     A                      A                      A
 Frequencies --    17.7303                21.4402                22.7067
 Red. masses --    12.8687                 9.6853                13.6912
 Frc consts  --     0.0024                 0.0026                 0.0042
 IR Inten    --     0.0411                 0.0166                 0.2294

                     4                      5                      6
                     A                      A                      A
 Frequencies --    53.3018                58.2104                62.2460
 Red. masses --     6.6382                 7.8210                 7.4417
 Frc consts  --     0.0111                 0.0156                 0.0170
 IR Inten    --     0.3360                 0.1472                 0.1511

                     7                      8                      9
                     A                      A                      A
 Frequencies --    88.3007               109.5313               127.6868
 Red. masses --     6.6822                 5.1121                 8.5670
 Frc consts  --     0.0307                 0.0361                 0.0823
 IR Inten    --     1.0881                 6.3565                 2.3311

                    10                     11                     12
                     A                      A                      A
 Frequencies --   147.6345               154.8134               161.4044
 Red. masses --     6.9271                 4.8175                 4.5598
 Frc consts  --     0.0890                 0.0680                 0.0700
 IR Inten    --     3.6150                 0.8034                 6.4334

                    13                     14                     15
                     A                      A                      A
 Frequencies --   176.0707               203.6033               235.3545
 Red. masses --     5.1352                 7.1415                 6.8876
 Frc consts  --     0.0938                 0.1744                 0.2248
 IR Inten    --     4.0327                 0.7729                 4.3785

                    16                     17                     18
                     A                      A                      A
 Frequencies --   249.3355               257.0397               269.5329
 Red. masses --     5.6755                 4.9096                 5.0635
 Frc consts  --     0.2079                 0.1911                 0.2167
 IR Inten    --     2.5997                 6.8216                11.6928

                    19                     20                     21
                     A                      A                      A
 Frequencies --   304.8597               324.2972               335.8116
 Red. masses --     8.1891                 6.7878                 6.4151
 Frc consts  --     0.4484                 0.4206                 0.4262
 IR Inten    --     9.8726                 6.0320                 5.4447

                    22                     23                     24
                     A                      A                      A
 Frequencies --   370.7574               375.6130               392.6945
 Red. masses --     5.6145                 5.2395                 4.1094
 Frc consts  --     0.4547                 0.4355                 0.3734
 IR Inten    --     2.0032                 2.3813                17.7915

                    25                     26                     27
                     A                      A                      A
 Frequencies --   404.1293               461.3327               484.4761
 Red. masses --     7.5550                 8.4756                 6.4466
 Frc consts  --     0.7270                 1.0628                 0.8915
 IR Inten    --     3.8582                 2.7720                32.8224

                    28                     29                     30
                     A                      A                      A
 Frequencies --   495.9985               520.0505               523.5996
 Red. masses --     8.5589                 6.4431                 2.2848
 Frc consts  --     1.2406                 1.0267                 0.3691
 IR Inten    --    16.8087                 2.9455                63.3580

                    31                     32                     33
                     A                      A                      A
 Frequencies --   535.9149               563.7857               574.3399
 Red. masses --     2.6791                 7.8511                 7.0833
 Frc consts  --     0.4534                 1.4703                 1.3767
 IR Inten    --    58.0833                 5.1783                10.2058

                    34                     35                     36
                     A                      A                      A
 Frequencies --   585.1418               595.8910               613.1266
 Red. masses --     4.4668                 5.3938                 5.3491
 Frc consts  --     0.9011                 1.1284                 1.1848
 IR Inten    --     6.6537                12.9769                 6.2101

                    37                     38                     39
                     A                      A                      A
 Frequencies --   626.3044               633.5737               654.1992
 Red. masses --     5.2245                 6.9768                 4.9937
 Frc consts  --     1.2074                 1.6501                 1.2592
 IR Inten    --    17.9373                 2.8325                16.8175

                    40                     41                     42
                     A                      A                      A
 Frequencies --   697.0917               702.7243               727.2547
 Red. masses --     8.1747                 6.1904                 5.7620
 Frc consts  --     2.3405                 1.8011                 1.7956
 IR Inten    --     3.6982                 2.7477                15.5808

                    43                     44                     45
                     A                      A                      A
 Frequencies --   728.4214               743.6656               768.4917
 Red. masses --     4.9963                 6.7914                 5.7122
 Frc consts  --     1.5619                 2.2129                 1.9876
 IR Inten    --    33.6998                39.9530                 1.4828

                    46                     47                     48
                     A                      A                      A
 Frequencies --   785.3932               795.8798               826.4801
 Red. masses --     4.9681                 5.8705                11.2204
 Frc consts  --     1.8056                 2.1909                 4.5157
 IR Inten    --    12.4932                16.8710                28.3255

                    49                     50                     51
                     A                      A                      A
 Frequencies --   841.2998               858.8726               867.0645
 Red. masses --    13.5263                 1.9927                 1.5376
 Frc consts  --     5.6407                 0.8661                 0.6811
 IR Inten    --    39.1155                54.9581                23.1084

                    52                     53                     54
                     A                      A                      A
 Frequencies --   876.0946               904.3889               906.9068
 Red. masses --     8.6802                 5.7189                 5.3801
 Frc consts  --     3.9254                 2.7559                 2.6071
 IR Inten    --     3.0925                53.2095                12.7852

                    55                     56                     57
                     A                      A                      A
 Frequencies --   909.3830               913.4452               935.8379
 Red. masses --     1.4337                 8.8044                 1.4195
 Frc consts  --     0.6986                 4.3283                 0.7324
 IR Inten    --    11.9585                12.4082                10.4575

                    58                     59                     60
                     A                      A                      A
 Frequencies --   963.7107               971.1482               992.4038
 Red. masses --     1.4880                 1.5520                 6.4792
 Frc consts  --     0.8142                 0.8624                 3.7596
 IR Inten    --     0.3151                25.6635                16.9023

                    61                     62                     63
                     A                      A                      A
 Frequencies --  1008.5250              1033.6080              1066.2028
 Red. masses --     5.0244                 1.6429                 1.2862
 Frc consts  --     3.0110                 1.0341                 0.8615
 IR Inten    --    18.8234                27.4291                18.0363

                    64                     65                     66
                     A                      A                      A
 Frequencies --  1080.5176              1097.1900              1112.6519
 Red. masses --     3.0673                 5.8239                 1.3612
 Frc consts  --     2.1099                 4.1308                 0.9929
 IR Inten    --    11.8797                41.9245                10.2391

                    67                     68                     69
                     A                      A                      A
 Frequencies --  1128.3561              1143.6958              1160.3509
 Red. masses --     2.7349                 3.4013                 2.4008
 Frc consts  --     2.0515                 2.6213                 1.9045
 IR Inten    --     4.9098               159.8111                13.5328

                    70                     71                     72
                     A                      A                      A
 Frequencies --  1202.1310              1214.2368              1249.8934
 Red. masses --     3.1924                 1.4712                 3.6940
 Frc consts  --     2.7182                 1.2780                 3.4001
 IR Inten    --    24.0670                 1.9033                 2.8340

                    73                     74                     75
                     A                      A                      A
 Frequencies --  1265.9269              1292.3799              1305.2675
 Red. masses --     1.2351                 3.3732                 3.0287
 Frc consts  --     1.1662                 3.3195                 3.0402
 IR Inten    --    37.3895                 6.5854                41.9279

                    76                     77                     78
                     A                      A                      A
 Frequencies --  1316.2115              1328.1913              1345.9912
 Red. masses --     2.8540                 3.6232                 3.1487
 Frc consts  --     2.9131                 3.7659                 3.3610
 IR Inten    --    55.4318               118.4896                27.8479

                    79                     80                     81
                     A                      A                      A
 Frequencies --  1367.6406              1373.8513              1376.1544
 Red. masses --     4.1071                 5.4593                 2.5299
 Frc consts  --     4.5261                 6.0711                 2.8228
 IR Inten    --    20.7058                14.2882                 2.0608

                    82                     83                     84
                     A                      A                      A
 Frequencies --  1384.2841              1397.7930              1403.6552
 Red. masses --     4.1082                 1.5438                 4.7795
 Frc consts  --     4.6383                 1.7772                 5.5482
 IR Inten    --    20.3039                27.7031                26.0162

                    85                     86                     87
                     A                      A                      A
 Frequencies --  1416.4199              1428.5921              1464.1609
 Red. masses --     2.4830                 2.9836                 4.9638
 Frc consts  --     2.9351                 3.5876                 6.2696
 IR Inten    --    26.9764                 3.0314                12.7262

                    88                     89                     90
                     A                      A                      A
 Frequencies --  1511.2426              1522.2387              1544.4954
 Red. masses --     7.1848                 9.1123                 5.2551
 Frc consts  --     9.6679                12.4406                 7.3860
 IR Inten    --    24.3451                30.0748                 7.4020

                    91                     92                     93
                     A                      A                      A
 Frequencies --  1557.3902              1589.9493              1621.5883
 Red. masses --     6.8792                 8.0622                 7.6645
 Frc consts  --     9.8307                12.0080                11.8745
 IR Inten    --    43.4726                54.8432                25.6575

                    94                     95                     96
                     A                      A                      A
 Frequencies --  1636.4416              1668.7775              1741.1648
 Red. masses --     8.0172                 6.6185                11.6907
 Frc consts  --    12.6496                10.8593                20.8819
 IR Inten    --   108.9082                67.5291               194.6017

                    97                     98                     99
                     A                      A                      A
 Frequencies --  3065.8713              3119.1064              3125.7364
 Red. masses --     1.0839                 1.0868                 1.0901
 Frc consts  --     6.0027                 6.2294                 6.2749
 IR Inten    --    20.4425                 0.3072                 1.6539

                   100                    101                    102
                     A                      A                      A
 Frequencies --  3127.0626              3177.8778              3191.1544
 Red. masses --     1.0877                 1.0913                 1.0918
 Frc consts  --     6.2665                 6.4932                 6.5509
 IR Inten    --     9.2037                 8.6646                 1.9272

                   103                    104                    105
                     A                      A                      A
 Frequencies --  3220.0382              3300.7654              3470.1854
 Red. masses --     1.0913                 1.0980                 1.0760
 Frc consts  --     6.6666                 7.0483                 7.6341
 IR Inten    --     6.6129                 5.2148                 3.4477

 - Thermochemistry -
 -------------------
 Temperature   298.150 Kelvin.  Pressure   1.00000 Atm.
 Atom     1 has atomic number  6 and mass  12.00000

 Molecular mass:   446.96930 amu.
 Principal axes and moments of inertia in atomic units:
                           1         2         3
     Eigenvalues --  4735.03024********************
           X            0.99992  -0.01202   0.00308
           Y            0.01200   0.99991   0.00670
           Z           -0.00316  -0.00666   0.99997
 This molecule is an asymmetric top.
 Rotational symmetry number  1.
 Warning -- assumption of classical behavior for rotation
           may cause significant error
 Rotational temperatures (Kelvin)      0.01829     0.00227     0.00204
 Rotational constants (GHZ):           0.38115     0.04734     0.04242
 Zero-point vibrational energy     643966.3 (Joules/Mol)
                                  153.91165 (Kcal/Mol)
 Warning -- explicit consideration of  36 degrees of freedom as
           vibrations may cause significant error
 Vibrational temperatures:     25.51    30.85    32.67    76.69    83.75
          (Kelvin)             89.56   127.04   157.59   183.71   212.41
                              222.74   232.22   253.33   292.94   338.62
                              358.74   369.82   387.80   438.62   466.59
                              483.16   533.44   540.42   565.00   581.45
                              663.75   697.05   713.63   748.24   753.34
                              771.06   811.16   826.35   841.89   857.35
                              882.15   901.11   911.57   941.25  1002.96
                             1011.06  1046.36  1048.03  1069.97  1105.69
                             1130.00  1145.09  1189.12  1210.44  1235.72
                             1247.51  1260.50  1301.21  1304.83  1308.40
                             1314.24  1346.46  1386.56  1397.26  1427.85
                             1451.04  1487.13  1534.03  1554.62  1578.61
                             1600.86  1623.45  1645.52  1669.48  1729.60
                             1747.01  1798.32  1821.38  1859.44  1877.99
                             1893.73  1910.97  1936.58  1967.73  1976.66
                             1979.98  1991.67  2011.11  2019.54  2037.91
                             2055.42  2106.60  2174.34  2190.16  2222.18
                             2240.73  2287.58  2333.10  2354.47  2401.00
                             2505.14  4411.10  4487.69  4497.23  4499.14
                             4572.25  4591.35  4632.91  4749.06  4992.82

 Zero-point correction=                           0.245274 (Hartree/Particle)
 Thermal correction to Energy=                    0.267393
 Thermal correction to Enthalpy=                  0.268337
 Thermal correction to Gibbs Free Energy=         0.190243
 Sum of electronic and zero-point Energies=          -3913.646911
 Sum of electronic and thermal Energies=             -3913.624792
 Sum of electronic and thermal Enthalpies=           -3913.623848
 Sum of electronic and thermal Free Energies=        -3913.701942

                     E (Thermal)             CV                S
                      KCal/Mol        Cal/Mol-Kelvin    Cal/Mol-Kelvin
 Total                  167.792             84.540            164.363
 Electronic               0.000              0.000              0.000
 Translational            0.889              2.981             44.181
 Rotational               0.889              2.981             37.283
 Vibrational            166.014             78.578             82.899
 Vibration     1          0.593              1.986              6.873
 Vibration     2          0.593              1.985              6.496
 Vibration     3          0.593              1.985              6.382
 Vibration     4          0.596              1.976              4.691
 Vibration     5          0.596              1.974              4.517
 Vibration     6          0.597              1.972              4.385
 Vibration     7          0.601              1.957              3.697
 Vibration     8          0.606              1.942              3.277
 Vibration     9          0.611              1.926              2.981
 Vibration    10          0.617              1.905              2.702
 Vibration    11          0.620              1.897              2.612
 Vibration    12          0.622              1.890              2.533
 Vibration    13          0.628              1.872              2.370
 Vibration    14          0.639              1.835              2.100
 Vibration    15          0.655              1.787              1.838
 Vibration    16          0.662              1.764              1.735
 Vibration    17          0.667              1.751              1.682
 Vibration    18          0.674              1.729              1.599
 Vibration    19          0.696              1.664              1.390
 Vibration    20          0.709              1.627              1.288
 Vibration    21          0.717              1.604              1.232
 Vibration    22          0.743              1.532              1.077
 Vibration    23          0.746              1.522              1.057
 Vibration    24          0.760              1.486              0.990
 Vibration    25          0.769              1.461              0.948
 Vibration    26          0.819              1.336              0.762
 Vibration    27          0.841              1.284              0.698
 Vibration    28          0.852              1.259              0.668
 Vibration    29          0.875              1.206              0.610
 Vibration    30          0.879              1.198              0.602
 Vibration    31          0.891              1.171              0.574
 Vibration    32          0.920              1.110              0.516
 Vibration    33          0.931              1.087              0.496
 Vibration    34          0.942              1.064              0.476
 Vibration    35          0.954              1.041              0.457
 Vibration    36          0.972              1.004              0.428

 Normal termination of Gaussian 09 at Mon Dec 30 10:12:23 2013.
