 Gaussian 09, Revision C.01,
 Gaussian 09:  EM64L-G09RevC.01 23-Sep-2011

 ----------------------------------------------------------------------
 #p HSEh1PBE/6-311+G(d,p) geom=allcheck td(singlets,root=1,nstate=50) s
 cf=(maxcycle=512,novaracc) test
 ----------------------------------------------------------------------

 Structure from the checkpoint file:  /panfs/panfs.cluster/scratch/shuo/M7_hseh1pbe/pphr/pphr_frag_HSEh1PBE.chk
 -----------------------------------------------------
 pphr_frag with HSEh1PBE, Tue Jul 12 11:18:14 CDT 2016
 -----------------------------------------------------
 Charge =  0 Multiplicity = 1

                         Standard orientation:
 ---------------------------------------------------------------------
 Center     Atomic      Atomic             Coordinates (Angstroms)
 Number     Number       Type             X           Y           Z
 ---------------------------------------------------------------------
      1          6           0        2.280094   -3.325342   -0.980424
      2          6           0        3.099540   -2.429455   -0.308615
      3          6           0        2.362971   -1.234199   -0.191537
      4          6           0        1.058992   -2.660194   -1.200892
      5          7           0        1.111264   -1.386861   -0.717152
      6          6           0       -0.091506   -3.228007   -1.945662
      7          6           0       -1.455305   -2.718978   -1.688628
      8          7           0       -1.707000   -1.419305   -1.381835
      9          6           0       -3.045775   -1.330485   -1.168149
     10          6           0       -2.648378   -3.465139   -1.713650
     11          6           0       -3.661786   -2.583314   -1.354988
     12          6           0       -3.753977   -0.088049   -0.754062
     13          6           0       -3.134617    1.232635   -1.045474
     14          7           0       -1.794925    1.453452   -1.063586
     15          6           0       -2.879417    3.426943   -1.401385
     16          6           0       -3.840300    2.439060   -1.236570
     17          6           0        0.868884    2.817567   -0.676921
     18          7           0        1.031712    1.477009   -0.496834
     19          6           0        2.264231    1.320933    0.062777
     20          6           0        2.881597    2.574690    0.270345
     21          6           0        2.006914    3.523206   -0.231863
     22          6           0        2.831017    0.008502    0.484555
     23          6           0       -0.306171    3.439242   -1.323959
     24          6           0       -1.630321    2.786954   -1.259723
     25          1           0        3.855613    2.731266    0.711963
     26          1           0        2.143143    4.595902   -0.278724
     27         30           0       -0.391646    0.015122   -0.805665
     28          1           0        4.109743   -2.585314    0.042954
     29          1           0        2.509749   -4.339613   -1.280391
     30          1           0       -0.084579   -4.317869   -1.830658
     31          1           0        0.126014   -3.069358   -3.022165
     32          1           0       -3.033931    4.483196   -1.579876
     33          1           0       -4.917041    2.541443   -1.239174
     34          1           0       -0.397232    4.473150   -0.968724
     35          1           0       -0.051717    3.554442   -2.398223
     36          1           0       -2.734190   -4.517787   -1.950062
     37          1           0       -4.717438   -2.791674   -1.239947
     38          6           0        4.342283    0.057425    0.581713
     39          6           0        4.995234   -0.068256    1.813178
     40          8           0        4.187060   -0.229253    2.896250
     41          6           0        6.391073   -0.026889    1.897645
     42          1           0        6.896604   -0.123438    2.850352
     43          6           0        7.130065    0.139953    0.734108
     44          1           0        8.213941    0.172109    0.794243
     45          6           0        6.514239    0.266339   -0.505251
     46          1           0        7.113244    0.394567   -1.398375
     47          6           0        5.119260    0.224316   -0.574938
     48          8           0        4.417928    0.336707   -1.723918
     49          1           0        2.485895   -0.101401    1.534694
     50          6           0        4.788390   -0.359387    4.163603
     51          6           0        5.126560    0.506277   -2.929120
     52          1           0        5.437446   -1.242494    4.214903
     53          1           0        3.970549   -0.475258    4.875828
     54          1           0        5.371830    0.531321    4.428322
     55          1           0        5.783724   -0.347994   -3.134728
     56          1           0        4.372488    0.575089   -3.713344
     57          1           0        5.723417    1.426982   -2.920429
     58          6           0       -4.121840   -0.112360    0.741433
     59          6           0       -5.456550    0.091320    1.125519
     60          8           0       -6.338159    0.300021    0.107901
     61          6           0       -5.838305    0.071751    2.468749
     62          1           0       -6.871788    0.220446    2.756186
     63          6           0       -4.870361   -0.134333    3.441906
     64          1           0       -5.158248   -0.145126    4.488695
     65          6           0       -3.538452   -0.319217    3.098386
     66          1           0       -2.796977   -0.462872    3.874271
     67          6           0       -3.167106   -0.302529    1.751840
     68          8           0       -1.872111   -0.476398    1.356076
     69          1           0       -4.719239   -0.097263   -1.272614
     70          6           0       -0.956588   -0.993208    2.306242
     71          6           0       -7.700637    0.458193    0.428636
     72          1           0       -8.220718    0.589811   -0.520994
     73          1           0       -7.868861    1.342406    1.056064
     74          1           0       -8.101851   -0.425910    0.939796
     75          1           0       -1.354397   -1.893400    2.787070
     76          1           0       -0.706988   -0.247432    3.070102
     77          1           0       -0.057625   -1.256059    1.745379
 ---------------------------------------------------------------------

 SCF Done:  E(RHSEH1PBE) =  -3688.40398170     A.U. after   30 cycles

 Excitation energies and oscillator strengths:

 Excited State   1:      Singlet-A      0.6599 eV 1878.71 nm  f=0.0405  <S**2>=0.000
     167 -> 170        0.17575
     169 -> 170        0.80786
     169 <- 170       -0.43390
 This state for optimization and/or second-order correction.
 Total Energy, E(TD-HF/TD-KS) =  -3688.37972919
 Copying the excited state density for this state as the 1-particle RhoCI density.

 Excited State   2:      Singlet-A      0.8822 eV 1405.40 nm  f=0.1367  <S**2>=0.000
     168 -> 170        0.79823
     168 <- 170       -0.38910

 Excited State   3:      Singlet-A      1.0901 eV 1137.42 nm  f=0.0424  <S**2>=0.000
     167 -> 170        0.70288
     168 -> 170        0.11413
     169 -> 170       -0.21561
     167 <- 170       -0.20894
     169 <- 170        0.13804

 Excited State   4:      Singlet-A      1.4167 eV  875.16 nm  f=0.0016  <S**2>=0.000
     165 -> 170       -0.12258
     166 -> 170        0.68779

 Excited State   5:      Singlet-A      1.6214 eV  764.67 nm  f=0.0033  <S**2>=0.000
     159 -> 170       -0.11657
     161 -> 170       -0.21158
     162 -> 170       -0.31364
     163 -> 170        0.54711
     164 -> 170       -0.17346

 Excited State   6:      Singlet-A      1.6601 eV  746.83 nm  f=0.0018  <S**2>=0.000
     161 -> 170        0.11650
     162 -> 170        0.52987
     163 -> 170        0.39847
     165 -> 170       -0.16058

 Excited State   7:      Singlet-A      1.6841 eV  736.19 nm  f=0.0002  <S**2>=0.000
     160 -> 170        0.12604
     161 -> 170       -0.27549
     162 -> 170        0.21945
     164 -> 170        0.13036
     165 -> 170        0.56111
     166 -> 170        0.12981

 Excited State   8:      Singlet-A      1.7083 eV  725.78 nm  f=0.0003  <S**2>=0.000
     160 -> 170       -0.15214
     161 -> 170        0.46225
     164 -> 170       -0.34207
     165 -> 170        0.35756

 Excited State   9:      Singlet-A      1.7304 eV  716.52 nm  f=0.0001  <S**2>=0.000
     160 -> 170       -0.21915
     161 -> 170        0.20970
     162 -> 170       -0.22758
     163 -> 170        0.14827
     164 -> 170        0.56540
     165 -> 170        0.10983

 Excited State  10:      Singlet-A      1.8883 eV  656.58 nm  f=0.0045  <S**2>=0.000
     160 -> 170        0.62995
     161 -> 170        0.27649

 Excited State  11:      Singlet-A      1.9529 eV  634.87 nm  f=0.0101  <S**2>=0.000
     158 -> 170       -0.17990
     159 -> 170        0.65352
     161 -> 170       -0.13685

 Excited State  12:      Singlet-A      2.0192 eV  614.04 nm  f=0.0033  <S**2>=0.000
     158 -> 170        0.67548
     159 -> 170        0.14294

 Excited State  13:      Singlet-A      3.7597 eV  329.77 nm  f=0.0115  <S**2>=0.000
     156 -> 170        0.55768
     157 -> 170        0.42575

 Excited State  14:      Singlet-A      3.8462 eV  322.36 nm  f=0.0097  <S**2>=0.000
     167 -> 171       -0.13301
     169 -> 171        0.69067

 Excited State  15:      Singlet-A      3.8586 eV  321.32 nm  f=0.0059  <S**2>=0.000
     154 -> 170        0.62503
     155 -> 170       -0.22298
     156 -> 170       -0.16980
     157 -> 170        0.15975

 Excited State  16:      Singlet-A      3.9087 eV  317.20 nm  f=0.0007  <S**2>=0.000
     168 -> 171        0.70411

 Excited State  17:      Singlet-A      3.9366 eV  314.95 nm  f=0.0540  <S**2>=0.000
     169 -> 172        0.68724

 Excited State  18:      Singlet-A      4.0213 eV  308.32 nm  f=0.0154  <S**2>=0.000
     168 -> 172        0.69515

 Excited State  19:      Singlet-A      4.0294 eV  307.70 nm  f=0.0098  <S**2>=0.000
     154 -> 170       -0.21623
     156 -> 170       -0.38172
     157 -> 170        0.52767
     169 -> 172        0.11111

 Excited State  20:      Singlet-A      4.1415 eV  299.37 nm  f=0.0002  <S**2>=0.000
     169 -> 173        0.67355
     169 -> 174       -0.14709

 Excited State  21:      Singlet-A      4.1478 eV  298.91 nm  f=0.0015  <S**2>=0.000
     154 -> 170        0.23889
     155 -> 170        0.65871

 Excited State  22:      Singlet-A      4.2357 eV  292.71 nm  f=0.0182  <S**2>=0.000
     167 -> 171        0.14393
     168 -> 173        0.67023
     168 -> 174       -0.10558

 Excited State  23:      Singlet-A      4.2542 eV  291.44 nm  f=0.0014  <S**2>=0.000
     167 -> 171        0.67577
     168 -> 173       -0.14552
     169 -> 171        0.13096

 Excited State  24:      Singlet-A      4.2771 eV  289.88 nm  f=0.0036  <S**2>=0.000
     169 -> 173        0.14285
     169 -> 174        0.67343

 Excited State  25:      Singlet-A      4.3623 eV  284.22 nm  f=0.0155  <S**2>=0.000
     153 -> 170        0.60853
     167 -> 172       -0.11442
     168 -> 174       -0.21077
     169 -> 177       -0.17608

 Excited State  26:      Singlet-A      4.3684 eV  283.82 nm  f=0.0088  <S**2>=0.000
     153 -> 170        0.19299
     168 -> 174        0.63999
     169 -> 177       -0.12629

 Excited State  27:      Singlet-A      4.4007 eV  281.74 nm  f=0.0125  <S**2>=0.000
     153 -> 170        0.19973
     167 -> 172       -0.11603
     169 -> 175       -0.18651
     169 -> 177        0.57880
     169 -> 178       -0.17890

 Excited State  28:      Singlet-A      4.4161 eV  280.76 nm  f=0.0003  <S**2>=0.000
     169 -> 175        0.65696
     169 -> 177        0.20187

 Excited State  29:      Singlet-A      4.4232 eV  280.31 nm  f=0.0015  <S**2>=0.000
     152 -> 170        0.18390
     167 -> 176       -0.11446
     169 -> 176        0.65977

 Excited State  30:      Singlet-A      4.4649 eV  277.69 nm  f=0.0403  <S**2>=0.000
     152 -> 170       -0.12746
     153 -> 170        0.14147
     167 -> 172        0.66846

 Excited State  31:      Singlet-A      4.4686 eV  277.45 nm  f=0.0387  <S**2>=0.000
     152 -> 170        0.64971
     167 -> 172        0.10704
     169 -> 176       -0.19167

 Excited State  32:      Singlet-A      4.4886 eV  276.22 nm  f=0.0010  <S**2>=0.000
     167 -> 173        0.10587
     168 -> 176        0.68732

 Excited State  33:      Singlet-A      4.5088 eV  274.98 nm  f=0.0013  <S**2>=0.000
     168 -> 175       -0.34437
     168 -> 177        0.57334
     168 -> 178       -0.17166

 Excited State  34:      Singlet-A      4.5143 eV  274.65 nm  f=0.0015  <S**2>=0.000
     167 -> 173       -0.15892
     168 -> 175        0.13365
     168 -> 177        0.17495
     169 -> 177        0.16827
     169 -> 178        0.59802

 Excited State  35:      Singlet-A      4.5233 eV  274.10 nm  f=0.0008  <S**2>=0.000
     168 -> 175        0.58477
     168 -> 177        0.29004
     168 -> 178       -0.10524
     169 -> 178       -0.20417

 Excited State  36:      Singlet-A      4.5710 eV  271.24 nm  f=0.0005  <S**2>=0.000
     167 -> 173        0.58408
     167 -> 174       -0.11641
     168 -> 176       -0.10876
     168 -> 179       -0.13604
     168 -> 181        0.18033
     169 -> 178        0.18209

 Excited State  37:      Singlet-A      4.5905 eV  270.09 nm  f=0.0045  <S**2>=0.000
     169 -> 179        0.64944
     169 -> 180       -0.18665

 Excited State  38:      Singlet-A      4.6263 eV  268.00 nm  f=0.0012  <S**2>=0.000
     168 -> 177        0.20101
     168 -> 178        0.66027

 Excited State  39:      Singlet-A      4.6695 eV  265.52 nm  f=0.0005  <S**2>=0.000
     168 -> 179       -0.15200
     169 -> 181        0.65350

 Excited State  40:      Singlet-A      4.6925 eV  264.22 nm  f=0.0007  <S**2>=0.000
     167 -> 173       -0.17095
     167 -> 174       -0.20301
     168 -> 179       -0.10700
     169 -> 179        0.18674
     169 -> 180        0.60214

 Excited State  41:      Singlet-A      4.7049 eV  263.52 nm  f=0.0091  <S**2>=0.000
     167 -> 173        0.15204
     167 -> 174        0.10710
     168 -> 179        0.60617
     169 -> 180        0.19809
     169 -> 181        0.14126

 Excited State  42:      Singlet-A      4.7199 eV  262.68 nm  f=0.0028  <S**2>=0.000
     167 -> 174        0.60789
     167 -> 179       -0.10772
     168 -> 179       -0.15304
     168 -> 181       -0.11696
     169 -> 180        0.19161

 Excited State  43:      Singlet-A      4.7492 eV  261.06 nm  f=0.0105  <S**2>=0.000
     149 -> 170        0.28406
     150 -> 170       -0.24151
     151 -> 170        0.54932

 Excited State  44:      Singlet-A      4.7906 eV  258.81 nm  f=0.0026  <S**2>=0.000
     167 -> 173       -0.17011
     167 -> 174        0.13546
     168 -> 180        0.46838
     168 -> 181        0.44118

 Excited State  45:      Singlet-A      4.8033 eV  258.12 nm  f=0.0011  <S**2>=0.000
     167 -> 173        0.10127
     168 -> 180        0.49048
     168 -> 181       -0.44926

 Excited State  46:      Singlet-A      4.8338 eV  256.50 nm  f=0.0121  <S**2>=0.000
     164 -> 171        0.11291
     167 -> 176        0.67356
     169 -> 176        0.11949

 Excited State  47:      Singlet-A      4.8438 eV  255.97 nm  f=0.0039  <S**2>=0.000
     143 -> 170       -0.10094
     144 -> 170        0.15661
     147 -> 170       -0.21494
     148 -> 170       -0.23846
     150 -> 170        0.53158
     151 -> 170        0.22748

 Excited State  48:      Singlet-A      4.8588 eV  255.17 nm  f=0.0054  <S**2>=0.000
     146 -> 170       -0.16165
     147 -> 170        0.60982
     148 -> 170       -0.13752
     149 -> 170        0.17187
     150 -> 170        0.16840

 Excited State  49:      Singlet-A      4.8839 eV  253.86 nm  f=0.0000  <S**2>=0.000
     167 -> 175        0.67040
     168 -> 181        0.12425

 Excited State  50:      Singlet-A      4.9146 eV  252.28 nm  f=0.0191  <S**2>=0.000
     144 -> 170       -0.20750
     146 -> 170        0.17638
     147 -> 170        0.11835
     148 -> 170        0.46552
     149 -> 170       -0.19011
     150 -> 170        0.25920
     151 -> 170        0.16478
     169 -> 183       -0.10796

 The electronic state is 1-A.
 Alpha  occ. eigenvalues -- -347.53325 -42.25056 -37.21340 -37.20686 -37.20675
 Alpha  occ. eigenvalues --  -19.23042 -19.22698 -19.22630 -19.22292 -14.35414
 Alpha  occ. eigenvalues --  -14.35310 -14.34879 -14.34408 -10.27836 -10.27553
 Alpha  occ. eigenvalues --  -10.27413 -10.27337 -10.26577 -10.26231 -10.25808
 Alpha  occ. eigenvalues --  -10.25764 -10.23590 -10.23475 -10.23218 -10.23136
 Alpha  occ. eigenvalues --  -10.23078 -10.22893 -10.22695 -10.22377 -10.22312
 Alpha  occ. eigenvalues --  -10.22237 -10.22204 -10.21950 -10.21889 -10.21824
 Alpha  occ. eigenvalues --  -10.21381 -10.21364 -10.20899 -10.20770 -10.20535
 Alpha  occ. eigenvalues --  -10.20445 -10.18821 -10.18654 -10.18475 -10.18393
 Alpha  occ. eigenvalues --  -10.18365 -10.18153 -10.17954 -10.17853  -4.82425
 Alpha  occ. eigenvalues --   -3.20710  -3.19634  -3.19617  -1.09583  -1.09172
 Alpha  occ. eigenvalues --   -1.09081  -1.08842  -0.96697  -0.95820  -0.95717
 Alpha  occ. eigenvalues --   -0.94799  -0.87413  -0.86965  -0.82440  -0.81315
 Alpha  occ. eigenvalues --   -0.78909  -0.78234  -0.76996  -0.76660  -0.76006
 Alpha  occ. eigenvalues --   -0.75597  -0.75401  -0.75044  -0.74683  -0.73866
 Alpha  occ. eigenvalues --   -0.71757  -0.71440  -0.70464  -0.69704  -0.69314
 Alpha  occ. eigenvalues --   -0.65600  -0.65317  -0.62413  -0.60972  -0.59619
 Alpha  occ. eigenvalues --   -0.59351  -0.59078  -0.57024  -0.55879  -0.55704
 Alpha  occ. eigenvalues --   -0.55020  -0.54667  -0.54488  -0.53535  -0.53348
 Alpha  occ. eigenvalues --   -0.52171  -0.51412  -0.51215  -0.51022  -0.50746
 Alpha  occ. eigenvalues --   -0.49566  -0.49309  -0.49197  -0.49124  -0.48446
 Alpha  occ. eigenvalues --   -0.47916  -0.47548  -0.47240  -0.47135  -0.46924
 Alpha  occ. eigenvalues --   -0.46186  -0.46067  -0.45923  -0.45417  -0.45174
 Alpha  occ. eigenvalues --   -0.45071  -0.44741  -0.44483  -0.43788  -0.43638
 Alpha  occ. eigenvalues --   -0.43024  -0.42349  -0.41536  -0.41220  -0.40668
 Alpha  occ. eigenvalues --   -0.40178  -0.39870  -0.39592  -0.39379  -0.39014
 Alpha  occ. eigenvalues --   -0.38802  -0.38768  -0.38328  -0.38111  -0.37831
 Alpha  occ. eigenvalues --   -0.37597  -0.37233  -0.36805  -0.36445  -0.36077
 Alpha  occ. eigenvalues --   -0.35995  -0.35481  -0.35126  -0.34984  -0.34856
 Alpha  occ. eigenvalues --   -0.34742  -0.34574  -0.34405  -0.34294  -0.33927
 Alpha  occ. eigenvalues --   -0.33860  -0.32390  -0.31943  -0.31108  -0.31057
 Alpha  occ. eigenvalues --   -0.30728  -0.30612  -0.23833  -0.23314  -0.22957
 Alpha  occ. eigenvalues --   -0.22851  -0.22546  -0.22493  -0.22204  -0.22102
 Alpha  occ. eigenvalues --   -0.21601  -0.18411  -0.17071  -0.16687
 Alpha virt. eigenvalues --   -0.15509  -0.02303  -0.01827  -0.01118  -0.00560
 Alpha virt. eigenvalues --   -0.00311  -0.00200  -0.00051   0.00130   0.00653
 Alpha virt. eigenvalues --    0.00744   0.00997   0.01675   0.01847   0.02259

 Mulliken atomic charges:
              1
     1  C   -0.879445
     2  C   -0.772452
     3  C   -0.177699
     4  C    0.876317
     5  N    0.599948
     6  C   -1.062739
     7  C    0.885225
     8  N    0.417865
     9  C    0.370877
    10  C   -0.660543
    11  C   -0.194439
    12  C   -0.143955
    13  C   -0.712878
    14  N    0.694916
    15  C   -0.878093
    16  C   -0.666980
    17  C    0.702093
    18  N    0.626149
    19  C   -0.103477
    20  C   -0.634881
    21  C   -0.984725
    22  C   -0.095128
    23  C   -0.471237
    24  C    0.730961
    25  H    0.149385
    26  H    0.123753
    27  Zn  -0.730575
    28  H    0.149590
    29  H    0.123152
    30  H    0.205654
    31  H    0.249029
    32  H    0.121485
    33  H    0.132775
    34  H    0.204711
    35  H    0.249456
    36  H    0.122358
    37  H    0.121312
    38  C    0.642632
    39  C   -0.136475
    40  O   -0.059061
    41  C   -0.205854
    42  H    0.139069
    43  C   -0.677444
    44  H    0.143018
    45  C   -0.391592
    46  H    0.138208
    47  C    0.493186
    48  O    0.082996
    49  H    0.299267
    50  C   -0.274526
    51  C   -0.321788
    52  H    0.164633
    53  H    0.177547
    54  H    0.164705
    55  H    0.165913
    56  H    0.190474
    57  H    0.165906
    58  C    0.819569
    59  C    0.233398
    60  O   -0.020339
    61  C   -0.648114
    62  H    0.138673
    63  C   -0.968361
    64  H    0.142442
    65  C   -0.270145
    66  H    0.141487
    67  C    0.164389
    68  O    0.062179
    69  H    0.229490
    70  C   -0.493309
    71  C   -0.247098
    72  H    0.179982
    73  H    0.169103
    74  H    0.162843
    75  H    0.188320
    76  H    0.193140
    77  H    0.233774
 Sum of Mulliken atomic charges =  -0.00000

 Dipole moment (field-independent basis, Debye):
    X=              1.7890    Y=              0.3576    Z=              2.5618  Tot=              3.1451
 Quadrupole moment (field-independent basis, Debye-Ang):
   XX=           -217.8642   YY=           -265.2467   ZZ=           -245.7236
   XY=             -2.0301   XZ=             -4.6596   YZ=             -4.2685

 Normal termination of Gaussian 09 at Wed Jul 13 19:01:42 2016.
