 Gaussian 09, Revision C.01,
 Gaussian 09:  EM64L-G09RevC.01 23-Sep-2011

 --------------------------------------------
 #B3LYP/6-31++G(d,p) opt scf=direct freq test
 --------------------------------------------

 Geom opt of No.91 candidate from the CEPDB database with SMILE code of
  c1occ2c1ccc1sc3c4oc(cc4c4nsnc4c3c21)-c1nccc2nsnc12, HPC, 20131227, Sh
 uo Dai, Gaussian09
 ----------------------------------------------------------------------
 Charge =  0 Multiplicity = 1

 SCF Done:  E(RB3LYP) =  -2422.62301237     A.U. after   26 cycles
 SCF Done:  E(RB3LYP) =  -2422.71227478     A.U. after   23 cycles
 SCF Done:  E(RB3LYP) =  -2422.81027041     A.U. after   24 cycles
 SCF Done:  E(RB3LYP) =  -2422.90918648     A.U. after   25 cycles
 SCF Done:  E(RB3LYP) =  -2423.00760135     A.U. after   19 cycles
 SCF Done:  E(RB3LYP) =  -2423.05142421     A.U. after   18 cycles
 SCF Done:  E(RB3LYP) =  -2423.08492309     A.U. after   18 cycles
 SCF Done:  E(RB3LYP) =  -2423.11766308     A.U. after   18 cycles
 SCF Done:  E(RB3LYP) =  -2423.12806687     A.U. after   17 cycles
 SCF Done:  E(RB3LYP) =  -2423.14135278     A.U. after   14 cycles
 SCF Done:  E(RB3LYP) =  -2423.14558836     A.U. after   14 cycles
 SCF Done:  E(RB3LYP) =  -2423.14583511     A.U. after   13 cycles
 SCF Done:  E(RB3LYP) =  -2423.14593321     A.U. after   12 cycles
 SCF Done:  E(RB3LYP) =  -2423.14595417     A.U. after   12 cycles
 SCF Done:  E(RB3LYP) =  -2423.14596731     A.U. after   12 cycles
 SCF Done:  E(RB3LYP) =  -2423.14597151     A.U. after   11 cycles
 SCF Done:  E(RB3LYP) =  -2423.14597287     A.U. after   12 cycles
 SCF Done:  E(RB3LYP) =  -2423.14597367     A.U. after    9 cycles
 SCF Done:  E(RB3LYP) =  -2423.14597388     A.U. after    9 cycles
 Optimization completed.
    -- Stationary point found.
 Normal termination of Gaussian 09 at Mon Dec 30 05:08:05 2013.

 ----------------------------------------------------------------------
 #N Geom=AllCheck Guess=TCheck SCRF=Check Test GenChk RB3LYP/6-31++G(d,
 p) Freq
 ----------------------------------------------------------------------

 Geom opt of No.91 candidate from the CEPDB database with SMILE code of
  c1occ2c1ccc1sc3c4oc(cc4c4nsnc4c3c21)-c1nccc2nsnc12, HPC, 20131227, Sh
 uo Dai, Gaussian09
 ----------------------------------------------------------------------
 Charge =  0 Multiplicity = 1

                         Standard orientation:
 ---------------------------------------------------------------------
 Center     Atomic      Atomic             Coordinates (Angstroms)
 Number     Number       Type             X           Y           Z
 ---------------------------------------------------------------------
      1          6           0       -6.552101   -1.089942    0.074487
      2          8           0       -6.450328   -0.285538   -1.127685
      3          6           0       -5.701672    0.118805    0.048539
      4          6           0       -4.477370   -0.789174    0.122721
      5          6           0       -5.281139   -1.936914    0.144255
      6          6           0       -4.772275   -3.227581    0.136480
      7          6           0       -3.370319   -3.348880    0.120680
      8          6           0       -2.567617   -2.204692    0.097580
      9         16           0       -0.799486   -2.214254    0.074566
     10          6           0       -0.768509   -0.465162    0.060996
     11          6           0        0.381514    0.358845    0.037544
     12          8           0        1.659721   -0.086948    0.017498
     13          6           0        2.467846    1.031345   -0.002052
     14          6           0        1.705799    2.177583    0.006246
     15          6           0        0.349012    1.752804    0.032001
     16          6           0       -0.936220    2.388996    0.054319
     17          7           0       -1.185298    3.694158    0.060351
     18         16           0       -2.828729    3.861878    0.093638
     19          7           0       -3.263037    2.267732    0.103776
     20          6           0       -2.135197    1.557456    0.077674
     21          6           0       -2.038005    0.120434    0.076061
     22          6           0       -3.088719   -0.869253    0.089985
     23          6           0        3.909780    0.861160   -0.027972
     24          7           0        4.626031    1.975755   -0.048465
     25          6           0        5.988138    1.925268   -0.074443
     26          6           0        6.738355    0.772491   -0.082179
     27          6           0        6.019777   -0.450691   -0.060652
     28          7           0        6.532045   -1.690519   -0.062772
     29         16           0        5.249280   -2.716723   -0.031178
     30          7           0        4.011757   -1.640547   -0.013481
     31          6           0        4.570871   -0.424375   -0.032486
     32          1           0       -7.537153   -1.251798    0.494826
     33          1           0       -5.854397    1.117532    0.432508
     34          1           0       -5.400397   -4.112574    0.158053
     35          1           0       -2.911229   -4.332775    0.127625
     36          1           0        2.090247    3.185494   -0.005293
     37          1           0        6.476909    2.895509   -0.089796
     38          1           0        7.821647    0.786911   -0.103414
 ---------------------------------------------------------------------

 SCF Done:  E(RB3LYP) =  -2423.14597388     A.U. after    2 cycles

 The electronic state is 1-A.
 Alpha  occ. eigenvalues --  -88.99922 -88.98393 -88.93453 -19.25022 -19.17946
 Alpha  occ. eigenvalues --  -14.39868 -14.39311 -14.38658 -14.38605 -14.36269
 Alpha  occ. eigenvalues --  -10.28594 -10.27979 -10.27878 -10.27064 -10.26911
 Alpha  occ. eigenvalues --  -10.26573 -10.26509 -10.26238 -10.26174 -10.26098
 Alpha  occ. eigenvalues --  -10.25034 -10.24936 -10.23639 -10.23209 -10.23193
 Alpha  occ. eigenvalues --  -10.22552 -10.22329 -10.22088 -10.21845 -10.21800
 Alpha  occ. eigenvalues --  -10.21506  -8.05240  -8.03722  -7.99281  -6.01789
 Alpha  occ. eigenvalues --   -6.01203  -6.01014  -6.00308  -5.99721  -5.99422
 Alpha  occ. eigenvalues --   -5.95755  -5.95385  -5.94901  -1.14820  -1.08890
 Alpha  occ. eigenvalues --   -1.04427  -1.03171  -0.97119  -0.92473  -0.91600
 Alpha  occ. eigenvalues --   -0.90694  -0.87866  -0.85269  -0.82950  -0.81965
 Alpha  occ. eigenvalues --   -0.80822  -0.79142  -0.78428  -0.75408  -0.74419
 Alpha  occ. eigenvalues --   -0.69698  -0.68168  -0.67265  -0.66242  -0.64933
 Alpha  occ. eigenvalues --   -0.64306  -0.63000  -0.61441  -0.59927  -0.59031
 Alpha  occ. eigenvalues --   -0.58243  -0.56059  -0.55258  -0.53901  -0.52889
 Alpha  occ. eigenvalues --   -0.51861  -0.50086  -0.49951  -0.49300  -0.48603
 Alpha  occ. eigenvalues --   -0.47628  -0.47061  -0.46834  -0.46095  -0.45262
 Alpha  occ. eigenvalues --   -0.44902  -0.44048  -0.43149  -0.42716  -0.42302
 Alpha  occ. eigenvalues --   -0.41304  -0.40971  -0.40740  -0.40412  -0.39447
 Alpha  occ. eigenvalues --   -0.39114  -0.38316  -0.36702  -0.35848  -0.35554
 Alpha  occ. eigenvalues --   -0.35273  -0.34958  -0.34239  -0.33846  -0.32393
 Alpha  occ. eigenvalues --   -0.32168  -0.31599  -0.30545  -0.29939  -0.29304
 Alpha  occ. eigenvalues --   -0.28901  -0.27534  -0.26833  -0.26749  -0.23233
 Alpha  occ. eigenvalues --   -0.22232
 Alpha virt. eigenvalues --   -0.12234  -0.09765  -0.06024  -0.04095  -0.03517
 Alpha virt. eigenvalues --   -0.02441  -0.01849  -0.01791  -0.01127  -0.00846
 Alpha virt. eigenvalues --   -0.00495  -0.00237   0.00289   0.00767   0.01303

 Mulliken atomic charges:
              1
     1  C   -0.240708
     2  O   -0.302969
     3  C    0.033479
     4  C    0.326265
     5  C    0.211829
     6  C   -0.422039
     7  C   -0.185616
     8  C   -0.439090
     9  S    0.019585
    10  C   -1.125743
    11  C   -0.971672
    12  O   -0.281933
    13  C   -0.039671
    14  C    0.473084
    15  C    0.751770
    16  C   -0.201145
    17  N   -0.395772
    18  S    0.854426
    19  N   -0.482396
    20  C    0.101638
    21  C    0.993279
    22  C    0.559352
    23  C   -1.000941
    24  N   -0.157551
    25  C    0.214110
    26  C   -0.600045
    27  C   -0.021308
    28  N   -0.380694
    29  S    0.941589
    30  N   -0.545679
    31  C    1.250140
    32  H    0.130622
    33  H    0.162514
    34  H    0.105297
    35  H    0.108650
    36  H    0.215956
    37  H    0.165475
    38  H    0.175910
 Sum of Mulliken atomic charges =  -0.00000

 Dipole moment (field-independent basis, Debye):
    X=              1.1167    Y=             -1.5283    Z=              1.7807  Tot=              2.5988
 Quadrupole moment (field-independent basis, Debye-Ang):
   XX=           -184.6201   YY=           -183.6990   ZZ=           -200.2493
   XY=              9.0645   XZ=            -12.9009   YZ=             -0.5145

  Exact polarizability: 655.744  -0.173 418.291  -4.560  -2.380 158.091
 Approx polarizability:1000.945 -26.492 792.224  -7.658  -5.423 270.048

                     1                      2                      3
                     A                      A                      A
 Frequencies --    17.0877                25.0443                43.4226
 Red. masses --    11.7392                 8.8026                11.3413
 Frc consts  --     0.0020                 0.0033                 0.0126
 IR Inten    --     0.0368                 0.2418                 0.0755

                     4                      5                      6
                     A                      A                      A
 Frequencies --    52.6004                69.3436               101.7631
 Red. masses --     9.1148                 7.0385                10.1602
 Frc consts  --     0.0149                 0.0199                 0.0620
 IR Inten    --     0.2733                 0.6657                 0.7780

                     7                      8                      9
                     A                      A                      A
 Frequencies --   113.6869               124.2064               153.0921
 Red. masses --     9.8708                12.2329                12.7042
 Frc consts  --     0.0752                 0.1112                 0.1754
 IR Inten    --     0.5321                 0.6968                 0.2556

                    10                     11                     12
                     A                      A                      A
 Frequencies --   158.5547               182.9013               197.1943
 Red. masses --    10.5243                 9.3759                 7.5673
 Frc consts  --     0.1559                 0.1848                 0.1734
 IR Inten    --     0.4923                 0.0767                 0.8311

                    13                     14                     15
                     A                      A                      A
 Frequencies --   202.9668               215.9522               225.0063
 Red. masses --     5.9527                10.3054                 6.5986
 Frc consts  --     0.1445                 0.2832                 0.1968
 IR Inten    --     1.7956                 0.7036                 0.4219

                    16                     17                     18
                     A                      A                      A
 Frequencies --   274.1459               287.9195               316.9993
 Red. masses --     8.0576                 5.7372                 6.7846
 Frc consts  --     0.3568                 0.2802                 0.4017
 IR Inten    --     2.0055                 6.5196                 1.9341

                    19                     20                     21
                     A                      A                      A
 Frequencies --   332.4865               369.2919               375.9710
 Red. masses --     9.8547                10.8162                 9.6545
 Frc consts  --     0.6419                 0.8691                 0.8041
 IR Inten    --     0.5393                 0.9326                 2.5567

                    22                     23                     24
                     A                      A                      A
 Frequencies --   381.3785               394.3646               403.4925
 Red. masses --     9.0335                 9.0298                11.8931
 Frc consts  --     0.7741                 0.8274                 1.1408
 IR Inten    --     2.5304                 0.5265                 3.6110

                    25                     26                     27
                     A                      A                      A
 Frequencies --   463.0373               473.1997               481.1925
 Red. masses --     8.3341                 5.3587                12.5165
 Frc consts  --     1.0528                 0.7070                 1.7075
 IR Inten    --     8.3680                 1.4956                 0.7012

                    28                     29                     30
                     A                      A                      A
 Frequencies --   494.3480               508.0664               526.3952
 Red. masses --     6.7259                 5.0927                10.1828
 Frc consts  --     0.9684                 0.7745                 1.6624
 IR Inten    --     5.8429                 1.9070                11.1650

                    31                     32                     33
                     A                      A                      A
 Frequencies --   542.8958               558.1698               564.7172
 Red. masses --     8.0441                 9.8746                 5.5909
 Frc consts  --     1.3969                 1.8126                 1.0505
 IR Inten    --    19.7988                 9.4245                12.2627

                    34                     35                     36
                     A                      A                      A
 Frequencies --   580.0023               595.7305               612.7713
 Red. masses --     8.7969                 6.9686                 7.1232
 Frc consts  --     1.7436                 1.4571                 1.5759
 IR Inten    --     0.5833                 0.7232                 4.2238

                    37                     38                     39
                     A                      A                      A
 Frequencies --   613.6877               639.4475               675.9243
 Red. masses --     6.6772                 7.4049                 9.3796
 Frc consts  --     1.4816                 1.7839                 2.5248
 IR Inten    --     2.5068                47.0763                 1.4848

                    40                     41                     42
                     A                      A                      A
 Frequencies --   694.5256               708.7394               714.9510
 Red. masses --     4.9328                11.0894                12.2954
 Frc consts  --     1.4019                 3.2819                 3.7029
 IR Inten    --     5.9730                 0.1103                 1.1030

                    43                     44                     45
                     A                      A                      A
 Frequencies --   726.3233               741.7258               747.7856
 Red. masses --    10.0937                 9.7823                 8.6507
 Frc consts  --     3.1373                 3.1709                 2.8501
 IR Inten    --     4.1279                28.4299                 0.3122

                    46                     47                     48
                     A                      A                      A
 Frequencies --   754.4043               758.5368               794.8386
 Red. masses --    10.4460                10.0637                 3.9488
 Frc consts  --     3.5028                 3.4116                 1.4699
 IR Inten    --     6.7675                 1.2830                 9.6502

                    49                     50                     51
                     A                      A                      A
 Frequencies --   800.2689               814.6407               819.6847
 Red. masses --     4.5321                 8.7971                 2.0350
 Frc consts  --     1.7101                 3.4397                 0.8056
 IR Inten    --     0.1791                59.3478                35.2399

                    52                     53                     54
                     A                      A                      A
 Frequencies --   828.0689               832.7272               833.9384
 Red. masses --     9.2599                 1.5766                 7.1526
 Frc consts  --     3.7410                 0.6441                 2.9308
 IR Inten    --    16.2675                34.2682                32.7062

                    55                     56                     57
                     A                      A                      A
 Frequencies --   836.3328               846.0201               870.4891
 Red. masses --    11.5824                 1.7279                 9.3467
 Frc consts  --     4.7732                 0.7286                 4.1729
 IR Inten    --    41.4155                36.6737                 6.9025

                    58                     59                     60
                     A                      A                      A
 Frequencies --   876.9797               879.7207               899.5750
 Red. masses --     1.4700                 8.5970                 4.5321
 Frc consts  --     0.6661                 3.9200                 2.1608
 IR Inten    --    15.6306                18.3826                16.1066

                    61                     62                     63
                     A                      A                      A
 Frequencies --   921.6474               945.0920               948.0167
 Red. masses --     9.8014                 1.3326                 2.8212
 Frc consts  --     4.9053                 0.7013                 1.4939
 IR Inten    --    24.7415                 0.2732                52.8987

                    64                     65                     66
                     A                      A                      A
 Frequencies --   952.2077               986.9920              1003.9436
 Red. masses --     6.1242                 1.3558                 4.5980
 Frc consts  --     3.2716                 0.7781                 2.7305
 IR Inten    --     8.4152                 0.3218                 1.5232

                    67                     68                     69
                     A                      A                      A
 Frequencies --  1012.1697              1046.6267              1080.4194
 Red. masses --     3.9454                 1.4924                 2.1054
 Frc consts  --     2.3815                 0.9632                 1.4480
 IR Inten    --     0.7362                 4.5705                 3.7243

                    70                     71                     72
                     A                      A                      A
 Frequencies --  1087.3013              1128.0973              1141.0033
 Red. masses --     2.7850                 4.3036                 1.4998
 Frc consts  --     1.9399                 3.2268                 1.1504
 IR Inten    --    20.8302                 4.9485                 6.3167

                    73                     74                     75
                     A                      A                      A
 Frequencies --  1161.0715              1183.7445              1186.4126
 Red. masses --     2.6564                 2.5243                 2.7782
 Frc consts  --     2.1099                 2.0840                 2.3040
 IR Inten    --    10.9981                 9.0866                15.6208

                    76                     77                     78
                     A                      A                      A
 Frequencies --  1204.8683              1220.7317              1234.6674
 Red. masses --     1.9837                 2.2071                 1.9273
 Frc consts  --     1.6967                 1.9378                 1.7310
 IR Inten    --    28.6800                 3.2421                22.1399

                    79                     80                     81
                     A                      A                      A
 Frequencies --  1261.7355              1286.1249              1324.2829
 Red. masses --     3.7179                 5.0794                 4.2198
 Frc consts  --     3.4873                 4.9502                 4.3602
 IR Inten    --     4.8833                21.7369                23.8114

                    82                     83                     84
                     A                      A                      A
 Frequencies --  1334.9005              1339.3167              1352.8605
 Red. masses --     3.4518                 8.9362                 3.4557
 Frc consts  --     3.6240                 9.4443                 3.7265
 IR Inten    --    56.5015                39.2182                18.0121

                    85                     86                     87
                     A                      A                      A
 Frequencies --  1365.1396              1374.0994              1383.3417
 Red. masses --     9.6019                 9.7408                 7.2940
 Frc consts  --    10.5429                10.8363                 8.2238
 IR Inten    --     4.6021                 2.4851                 4.1538

                    88                     89                     90
                     A                      A                      A
 Frequencies --  1425.9526              1429.9844              1439.5631
 Red. masses --     3.9920                 3.7990                 4.0434
 Frc consts  --     4.7825                 4.5770                 4.9369
 IR Inten    --    39.6568                 6.2972                 2.9099

                    91                     92                     93
                     A                      A                      A
 Frequencies --  1472.8482              1476.5652              1490.6692
 Red. masses --     8.0083                 5.5430                 8.2728
 Frc consts  --    10.2354                 7.1203                10.8310
 IR Inten    --    27.7703                11.4943               108.8571

                    94                     95                     96
                     A                      A                      A
 Frequencies --  1501.5337              1546.4183              1574.5846
 Red. masses --     8.2021                 4.5742                10.7444
 Frc consts  --    10.8955                 6.4449                15.6951
 IR Inten    --   108.3588                71.0266               169.0330

                    97                     98                     99
                     A                      A                      A
 Frequencies --  1585.9649              1613.5243              1616.0405
 Red. masses --     9.7399                 8.8471                 8.0376
 Frc consts  --    14.4341                13.5707                12.3675
 IR Inten    --   129.1331                14.6873                22.4932

                   100                    101                    102
                     A                      A                      A
 Frequencies --  1621.6966              1645.0803              3190.3504
 Red. masses --     7.9475                 9.1339                 1.0899
 Frc consts  --    12.3146                14.5640                 6.5360
 IR Inten    --     0.1285                 1.1094                34.4915

                   103                    104                    105
                     A                      A                      A
 Frequencies --  3192.9928              3208.4203              3225.6969
 Red. masses --     1.0882                 1.0950                 1.0930
 Frc consts  --     6.5369                 6.6412                 6.7007
 IR Inten    --     0.6756                13.8744                16.3840

                   106                    107                    108
                     A                      A                      A
 Frequencies --  3231.9276              3260.5294              3296.5003
 Red. masses --     1.0950                 1.0972                 1.0975
 Frc consts  --     6.7389                 6.8726                 7.0270
 IR Inten    --     3.4279                 5.8987                 4.9502

 - Thermochemistry -
 -------------------
 Temperature   298.150 Kelvin.  Pressure   1.00000 Atm.
 Atom     1 has atomic number  6 and mass  12.00000

 Molecular mass:   456.97619 amu.
 Principal axes and moments of inertia in atomic units:
                           1         2         3
     Eigenvalues --  7193.64232********************
           X            0.99992   0.01225  -0.00118
           Y           -0.01225   0.99992  -0.00089
           Z            0.00117   0.00091   1.00000
 This molecule is an asymmetric top.
 Rotational symmetry number  1.
 Warning -- assumption of classical behavior for rotation
           may cause significant error
 Rotational temperatures (Kelvin)      0.01204     0.00320     0.00254
 Rotational constants (GHZ):           0.25088     0.06666     0.05292
 Zero-point vibrational energy     631881.8 (Joules/Mol)
                                  151.02338 (Kcal/Mol)
 Warning -- explicit consideration of  37 degrees of freedom as
           vibrations may cause significant error
 Vibrational temperatures:     24.59    36.03    62.48    75.68    99.77
          (Kelvin)            146.41   163.57   178.71   220.27   228.12
                              263.15   283.72   292.02   310.71   323.73
                              394.43   414.25   456.09   478.37   531.33
                              540.94   548.72   567.40   580.54   666.21
                              680.83   692.33   711.26   730.99   757.36
                              781.11   803.08   812.50   834.49   857.12
                              881.64   882.96   920.02   972.50   999.27
                             1019.72  1028.65  1045.02  1067.18  1075.90
                             1085.42  1091.36  1143.59  1151.41  1172.08
                             1179.34  1191.40  1198.11  1199.85  1203.29
                             1217.23  1252.44  1261.78  1265.72  1294.29
                             1326.04  1359.77  1363.98  1370.01  1420.06
                             1444.45  1456.28  1505.86  1554.48  1564.38
                             1623.08  1641.65  1670.52  1703.14  1706.98
                             1733.53  1756.36  1776.41  1815.35  1850.44
                             1905.35  1920.62  1926.98  1946.46  1964.13
                             1977.02  1990.32  2051.63  2057.43  2071.21
                             2119.10  2124.45  2144.74  2160.37  2224.95
                             2265.47  2281.85  2321.50  2325.12  2333.26
                             2366.90  4590.20  4594.00  4616.20  4641.05
                             4650.02  4691.17  4742.92

 Zero-point correction=                           0.240671 (Hartree/Particle)
 Thermal correction to Energy=                    0.262441
 Thermal correction to Enthalpy=                  0.263385
 Thermal correction to Gibbs Free Energy=         0.187852
 Sum of electronic and zero-point Energies=          -2422.905303
 Sum of electronic and thermal Energies=             -2422.883533
 Sum of electronic and thermal Enthalpies=           -2422.882589
 Sum of electronic and thermal Free Energies=        -2422.958122

                     E (Thermal)             CV                S
                      KCal/Mol        Cal/Mol-Kelvin    Cal/Mol-Kelvin
 Total                  164.684             87.297            158.973
 Electronic               0.000              0.000              0.000
 Translational            0.889              2.981             44.247
 Rotational               0.889              2.981             37.138
 Vibrational            162.906             81.335             77.587
 Vibration     1          0.593              1.986              6.947
 Vibration     2          0.593              1.985              6.188
 Vibration     3          0.595              1.980              5.096
 Vibration     4          0.596              1.977              4.717
 Vibration     5          0.598              1.969              4.172
 Vibration     6          0.604              1.948              3.420
 Vibration     7          0.607              1.938              3.205
 Vibration     8          0.610              1.929              3.034
 Vibration     9          0.619              1.899              2.633
 Vibration    10          0.621              1.893              2.567
 Vibration    11          0.630              1.863              2.299
 Vibration    12          0.637              1.844              2.159
 Vibration    13          0.639              1.836              2.106
 Vibration    14          0.645              1.817              1.993
 Vibration    15          0.650              1.803              1.918
 Vibration    16          0.676              1.721              1.570
 Vibration    17          0.685              1.696              1.486
 Vibration    18          0.704              1.641              1.326
 Vibration    19          0.714              1.611              1.248
 Vibration    20          0.742              1.535              1.083
 Vibration    21          0.747              1.521              1.055
 Vibration    22          0.751              1.510              1.034
 Vibration    23          0.761              1.482              0.984
 Vibration    24          0.769              1.463              0.950
 Vibration    25          0.821              1.332              0.757
 Vibration    26          0.830              1.310              0.729
 Vibration    27          0.837              1.292              0.707
 Vibration    28          0.850              1.263              0.672
 Vibration    29          0.863              1.232              0.638
 Vibration    30          0.881              1.192              0.595
 Vibration    31          0.898              1.155              0.559
 Vibration    32          0.914              1.122              0.527
 Vibration    33          0.921              1.108              0.514
 Vibration    34          0.937              1.075              0.485
 Vibration    35          0.953              1.041              0.457
 Vibration    36          0.972              1.005              0.428
 Vibration    37          0.973              1.003              0.427

 Normal termination of Gaussian 09 at Mon Dec 30 06:48:06 2013.
