 Gaussian 09, Revision C.01,
 Gaussian 09:  EM64L-G09RevC.01 23-Sep-2011

 --------------------------------------------
 #B3LYP/6-31++G(d,p) opt scf=direct freq test
 --------------------------------------------

 Geom opt of No.60 candidate from the CEPDB database with SMILE code of
  C1ccc2c1c(sc2-c1ncc(-c2nccs2)c2nsnc12)-c1[SiH2]ccc1, HPC, 20131227, S
 huo Dai, Gaussian09
 ----------------------------------------------------------------------
 Charge =  0 Multiplicity = 1

 SCF Done:  E(RB3LYP) =  -2435.44706207     A.U. after   23 cycles
 SCF Done:  E(RB3LYP) =  -2435.47987068     A.U. after   18 cycles
 SCF Done:  E(RB3LYP) =  -2435.50189122     A.U. after   18 cycles
 SCF Done:  E(RB3LYP) =  -2435.50747388     A.U. after   14 cycles
 SCF Done:  E(RB3LYP) =  -2435.50861265     A.U. after   14 cycles
 SCF Done:  E(RB3LYP) =  -2435.50905816     A.U. after   14 cycles
 SCF Done:  E(RB3LYP) =  -2435.50925437     A.U. after   14 cycles
 SCF Done:  E(RB3LYP) =  -2435.50932245     A.U. after   14 cycles
 SCF Done:  E(RB3LYP) =  -2435.50934997     A.U. after   12 cycles
 SCF Done:  E(RB3LYP) =  -2435.50936251     A.U. after   12 cycles
 SCF Done:  E(RB3LYP) =  -2435.50985326     A.U. after   13 cycles
 SCF Done:  E(RB3LYP) =  -2435.50985796     A.U. after   13 cycles
 SCF Done:  E(RB3LYP) =  -2435.50985931     A.U. after   13 cycles
 SCF Done:  E(RB3LYP) =  -2435.50985958     A.U. after   13 cycles
 SCF Done:  E(RB3LYP) =  -2435.50985863     A.U. after   12 cycles
 SCF Done:  E(RB3LYP) =  -2435.50985833     A.U. after   12 cycles
 SCF Done:  E(RB3LYP) =  -2435.50985824     A.U. after   10 cycles
 SCF Done:  E(RB3LYP) =  -2435.50985845     A.U. after   10 cycles
 SCF Done:  E(RB3LYP) =  -2435.50985854     A.U. after    9 cycles
 Optimization completed.
    -- Stationary point found.
 Normal termination of Gaussian 09 at Sun Dec 29 18:51:02 2013.

 ----------------------------------------------------------------------
 #N Geom=AllCheck Guess=TCheck SCRF=Check Test GenChk RB3LYP/6-31++G(d,
 p) Freq
 ----------------------------------------------------------------------

 Geom opt of No.60 candidate from the CEPDB database with SMILE code of
  C1ccc2c1c(sc2-c1ncc(-c2nccs2)c2nsnc12)-c1[SiH2]ccc1, HPC, 20131227, S
 huo Dai, Gaussian09
 ----------------------------------------------------------------------
 Charge =  0 Multiplicity = 1

                         Standard orientation:
 ---------------------------------------------------------------------
 Center     Atomic      Atomic             Coordinates (Angstroms)
 Number     Number       Type             X           Y           Z
 ---------------------------------------------------------------------
      1          6           0       -3.964227    2.072964   -0.046047
      2          6           0       -2.922060    3.166287    0.039042
      3          6           0       -1.663381    2.670267    0.030176
      4          6           0       -1.721043    1.211504   -0.056944
      5          6           0       -3.102931    0.833917   -0.104135
      6          6           0       -3.321306   -0.520266   -0.166939
      7         16           0       -1.793297   -1.373291   -0.175432
      8          6           0       -0.848752    0.123366   -0.085346
      9          6           0        0.586172   -0.051356   -0.056411
     10          7           0        1.019303   -1.314229   -0.079695
     11          6           0        2.331974   -1.627538   -0.059415
     12          6           0        3.385970   -0.721309   -0.014164
     13          6           0        4.768841   -1.185800    0.003210
     14          7           0        5.092123   -2.460794   -0.021940
     15          6           0        6.447523   -2.638920    0.001599
     16          6           0        7.199287   -1.494780    0.045752
     17         16           0        6.167680   -0.105842    0.059031
     18          6           0        2.989565    0.650235    0.009730
     19          7           0        3.802570    1.712402    0.049616
     20         16           0        2.842073    3.046074    0.056913
     21          7           0        1.369960    2.321309    0.010653
     22          6           0        1.579380    1.003118   -0.011731
     23          6           0       -4.604023   -1.294283   -0.214172
     24         14           0       -5.742285   -1.198853    1.339982
     25          1           0       -5.581447   -2.376977    2.231906
     26          1           0       -5.539219    0.023999    2.162959
     27          6           0       -7.307185   -1.173953    0.321253
     28          6           0       -6.998536   -1.041569   -0.982100
     29          6           0       -5.550375   -0.931763   -1.406671
     30          1           0       -4.603489    2.197118   -0.931575
     31          1           0       -4.636654    2.082112    0.822914
     32          1           0       -3.177839    4.218692    0.098315
     33          1           0       -0.749548    3.241366    0.080338
     34          1           0        2.560323   -2.688182   -0.081233
     35          1           0        6.847921   -3.645698   -0.015406
     36          1           0        8.275647   -1.397182    0.070387
     37          1           0       -4.361455   -2.360470   -0.303555
     38          1           0       -8.341202   -1.223449    0.651637
     39          1           0       -7.760446   -0.982618   -1.760929
     40          1           0       -5.354463    0.090989   -1.754302
     41          1           0       -5.346461   -1.578368   -2.269968
 ---------------------------------------------------------------------

 SCF Done:  E(RB3LYP) =  -2435.50985854     A.U. after    2 cycles

 The electronic state is 1-A.
 Alpha  occ. eigenvalues --  -88.99375 -88.92195 -88.91287 -66.14044 -14.39427
 Alpha  occ. eigenvalues --  -14.38719 -14.34720 -14.34126 -10.26720 -10.26507
 Alpha  occ. eigenvalues --  -10.26496 -10.26396 -10.23776 -10.23767 -10.23218
 Alpha  occ. eigenvalues --  -10.22565 -10.22490 -10.22296 -10.21817 -10.21521
 Alpha  occ. eigenvalues --  -10.21293 -10.21156 -10.20989 -10.20776 -10.20185
 Alpha  occ. eigenvalues --  -10.20054 -10.19005  -8.04674  -7.98081  -7.97054
 Alpha  occ. eigenvalues --   -6.01240  -6.00655  -6.00418  -5.94480  -5.94120
 Alpha  occ. eigenvalues --   -5.93824  -5.93512  -5.93113  -5.92749  -5.28790
 Alpha  occ. eigenvalues --   -3.64693  -3.64625  -3.64598  -1.03937  -0.96941
 Alpha  occ. eigenvalues --   -0.95875  -0.91284  -0.90222  -0.84242  -0.83150
 Alpha  occ. eigenvalues --   -0.82159  -0.80337  -0.79579  -0.77041  -0.74007
 Alpha  occ. eigenvalues --   -0.72565  -0.71372  -0.69971  -0.67840  -0.65439
 Alpha  occ. eigenvalues --   -0.64418  -0.62707  -0.59550  -0.58485  -0.56940
 Alpha  occ. eigenvalues --   -0.56133  -0.54777  -0.53879  -0.52654  -0.52474
 Alpha  occ. eigenvalues --   -0.51097  -0.50150  -0.49153  -0.48126  -0.47392
 Alpha  occ. eigenvalues --   -0.45920  -0.45498  -0.44743  -0.43429  -0.42301
 Alpha  occ. eigenvalues --   -0.42068  -0.41700  -0.41032  -0.40743  -0.40371
 Alpha  occ. eigenvalues --   -0.39807  -0.39623  -0.38703  -0.38122  -0.37141
 Alpha  occ. eigenvalues --   -0.36943  -0.36573  -0.35407  -0.34994  -0.34253
 Alpha  occ. eigenvalues --   -0.33530  -0.33013  -0.32586  -0.31548  -0.30397
 Alpha  occ. eigenvalues --   -0.29348  -0.29211  -0.28522  -0.27820  -0.27440
 Alpha  occ. eigenvalues --   -0.26727  -0.24771  -0.23432  -0.20470
 Alpha virt. eigenvalues --   -0.11591  -0.05827  -0.03777  -0.02429  -0.01839
 Alpha virt. eigenvalues --   -0.01630  -0.01291  -0.00819  -0.00451  -0.00268
 Alpha virt. eigenvalues --   -0.00090   0.00722   0.00895   0.01260   0.01452

 Mulliken atomic charges:
              1
     1  C   -0.943832
     2  C    0.097940
     3  C   -0.675928
     4  C    0.684118
     5  C    0.346795
     6  C   -0.390161
     7  S    0.343892
     8  C   -0.466402
     9  C    0.181709
    10  N   -0.140016
    11  C    0.432102
    12  C   -0.485362
    13  C   -0.627039
    14  N   -0.066680
    15  C    0.092692
    16  C   -0.218006
    17  S    0.418298
    18  C   -0.200260
    19  N   -0.375674
    20  S    0.913697
    21  N   -0.502948
    22  C    0.252392
    23  C   -0.313350
    24  Si   0.767087
    25  H   -0.051020
    26  H   -0.076279
    27  C   -0.620596
    28  C    0.126285
    29  C   -0.551065
    30  H    0.132553
    31  H    0.162113
    32  H    0.155544
    33  H    0.150551
    34  H    0.237946
    35  H    0.151620
    36  H    0.193644
    37  H    0.174760
    38  H    0.142600
    39  H    0.145586
    40  H    0.223561
    41  H    0.177134
 Sum of Mulliken atomic charges =  -0.00000

 Dipole moment (field-independent basis, Debye):
    X=             -2.8140    Y=              2.3613    Z=             -0.7042  Tot=              3.7404
 Quadrupole moment (field-independent basis, Debye-Ang):
   XX=           -151.5721   YY=           -180.6733   ZZ=           -187.4016
   XY=             -0.4765   XZ=              5.2542   YZ=              0.9594

  Exact polarizability: 712.487 -39.476 350.359   2.160   0.979 198.885
 Approx polarizability:1046.491 -68.433 670.947   5.301   6.061 334.852

                     1                      2                      3
                     A                      A                      A
 Frequencies --    13.1862                19.9869                33.6812
 Red. masses --     6.8147                 6.8479                 7.1592
 Frc consts  --     0.0007                 0.0016                 0.0048
 IR Inten    --     0.0433                 0.6680                 0.8762

                     4                      5                      6
                     A                      A                      A
 Frequencies --    35.7335                45.1375                68.9062
 Red. masses --     4.3459                 6.7335                 5.2915
 Frc consts  --     0.0033                 0.0081                 0.0148
 IR Inten    --     0.0851                 0.0661                 0.9343

                     7                      8                      9
                     A                      A                      A
 Frequencies --    77.8768               101.4078               122.5073
 Red. masses --     5.5297                 5.4956                 7.3505
 Frc consts  --     0.0198                 0.0333                 0.0650
 IR Inten    --     0.2609                 0.4023                 0.5196

                    10                     11                     12
                     A                      A                      A
 Frequencies --   142.8795               149.6890               164.4490
 Red. masses --     5.7568                 7.3675                 3.8342
 Frc consts  --     0.0692                 0.0973                 0.0611
 IR Inten    --     0.9061                 0.3222                 0.7382

                    13                     14                     15
                     A                      A                      A
 Frequencies --   189.7100               195.3578               204.0970
 Red. masses --     6.1796                 5.1081                 6.7312
 Frc consts  --     0.1310                 0.1149                 0.1652
 IR Inten    --     0.8928                 0.2934                 0.1809

                    16                     17                     18
                     A                      A                      A
 Frequencies --   215.6546               240.9849               280.1969
 Red. masses --     7.2506                 7.0096                 9.1411
 Frc consts  --     0.1987                 0.2398                 0.4228
 IR Inten    --     0.3279                 0.6374                 2.3282

                    19                     20                     21
                     A                      A                      A
 Frequencies --   308.8443               313.6903               335.6198
 Red. masses --     4.1218                 2.5784                 5.1872
 Frc consts  --     0.2316                 0.1495                 0.3443
 IR Inten    --     2.1013                 0.6820                 0.6618

                    22                     23                     24
                     A                      A                      A
 Frequencies --   368.4144               385.4372               401.6647
 Red. masses --     5.9341                 3.2103                 2.7860
 Frc consts  --     0.4745                 0.2810                 0.2648
 IR Inten    --     2.1909                 8.6150                 1.8550

                    25                     26                     27
                     A                      A                      A
 Frequencies --   445.0969               468.3310               493.6114
 Red. masses --     5.4538                 6.3637                 5.1809
 Frc consts  --     0.6366                 0.8224                 0.7437
 IR Inten    --     0.3102                 2.7822                 0.4248

                    28                     29                     30
                     A                      A                      A
 Frequencies --   503.1009               515.4458               522.6242
 Red. masses --     8.7519                 9.5732                 4.2890
 Frc consts  --     1.3052                 1.4986                 0.6902
 IR Inten    --     4.5502                20.2537                17.5876

                    31                     32                     33
                     A                      A                      A
 Frequencies --   524.2752               538.9842               568.3468
 Red. masses --     5.8962                 8.5190                 5.6687
 Frc consts  --     0.9549                 1.4581                 1.0789
 IR Inten    --    26.4310                 0.7715                 3.5688

                    34                     35                     36
                     A                      A                      A
 Frequencies --   587.6801               608.1113               610.2347
 Red. masses --     5.3110                 1.2882                 7.0749
 Frc consts  --     1.0807                 0.2807                 1.5523
 IR Inten    --     1.0457                 7.7275                 1.5836

                    37                     38                     39
                     A                      A                      A
 Frequencies --   624.6944               641.7047               650.8795
 Red. masses --     4.2168                 5.4157                 2.3611
 Frc consts  --     0.9695                 1.3139                 0.5893
 IR Inten    --    28.6159                18.2826                17.1533

                    40                     41                     42
                     A                      A                      A
 Frequencies --   676.4174               681.1935               697.7572
 Red. masses --     8.9218                 3.4401                 3.2532
 Frc consts  --     2.4051                 0.9405                 0.9332
 IR Inten    --    15.6333                 3.2853                16.8062

                    43                     44                     45
                     A                      A                      A
 Frequencies --   718.6600               725.6054               725.8048
 Red. masses --     1.7362                 1.6314                 2.7888
 Frc consts  --     0.5283                 0.5061                 0.8656
 IR Inten    --    47.4200                31.6681                10.6988

                    46                     47                     48
                     A                      A                      A
 Frequencies --   737.5256               753.2113               760.5874
 Red. masses --     4.1649                 1.4350                 2.0248
 Frc consts  --     1.3348                 0.4797                 0.6901
 IR Inten    --    17.3612                27.0027                17.4628

                    49                     50                     51
                     A                      A                      A
 Frequencies --   761.1655               795.9875               817.6858
 Red. masses --     6.5856                10.4121                 4.8283
 Frc consts  --     2.2480                 3.8869                 1.9020
 IR Inten    --     5.7906                 2.9511                 7.9770

                    52                     53                     54
                     A                      A                      A
 Frequencies --   828.9857               834.7775               848.3716
 Red. masses --     6.9541                 5.1755                11.9486
 Frc consts  --     2.8157                 2.1249                 5.0669
 IR Inten    --     4.3894               133.6000                28.3102

                    55                     56                     57
                     A                      A                      A
 Frequencies --   869.4923               880.8057               887.6201
 Red. masses --     2.5352                 5.1449                 6.4951
 Frc consts  --     1.1292                 2.3517                 3.0150
 IR Inten    --   116.0862               152.2927                15.4282

                    58                     59                     60
                     A                      A                      A
 Frequencies --   903.0917               908.4901               923.2298
 Red. masses --     1.3196                 2.8207                 4.1130
 Frc consts  --     0.6341                 1.3716                 2.0655
 IR Inten    --     3.2010                27.6447                16.6537

                    61                     62                     63
                     A                      A                      A
 Frequencies --   930.2875               952.3163               953.8650
 Red. masses --     5.1299                 2.0311                 2.0290
 Frc consts  --     2.6157                 1.0853                 1.0877
 IR Inten    --     6.6132                 7.8715                44.7356

                    64                     65                     66
                     A                      A                      A
 Frequencies --   968.0044               973.3821               984.0471
 Red. masses --     1.9435                 1.4302                 1.1671
 Frc consts  --     1.0730                 0.7984                 0.6659
 IR Inten    --     2.3408                 7.3436                42.1477

                    67                     68                     69
                     A                      A                      A
 Frequencies --   984.9844               998.9484              1013.0953
 Red. masses --     1.1952                 1.9437                 1.7900
 Frc consts  --     0.6832                 1.1428                 1.0824
 IR Inten    --    52.6268                20.2970                11.5588

                    70                     71                     72
                     A                      A                      A
 Frequencies --  1026.4861              1087.6384              1104.6904
 Red. masses --     4.6215                 1.4903                 4.1683
 Frc consts  --     2.8691                 1.0387                 2.9970
 IR Inten    --     0.4414                13.3637                52.0919

                    73                     74                     75
                     A                      A                      A
 Frequencies --  1126.1000              1131.4571              1145.4253
 Red. masses --     1.2887                 1.0976                 1.3689
 Frc consts  --     0.9629                 0.8279                 1.0582
 IR Inten    --     6.0355                13.1908                 8.8483

                    76                     77                     78
                     A                      A                      A
 Frequencies --  1151.7364              1160.5343              1192.5126
 Red. masses --     1.3267                 1.9534                 2.2644
 Frc consts  --     1.0369                 1.5501                 1.8972
 IR Inten    --     6.3361                30.3370                 6.2758

                    79                     80                     81
                     A                      A                      A
 Frequencies --  1224.0233              1227.0976              1268.3581
 Red. masses --     2.1795                 1.4987                 3.0181
 Frc consts  --     1.9239                 1.3296                 2.8606
 IR Inten    --    50.3448                17.3085                44.4996

                    82                     83                     84
                     A                      A                      A
 Frequencies --  1285.7362              1318.3911              1335.7625
 Red. masses --     2.1978                 1.5097                 2.4279
 Frc consts  --     2.1406                 1.5460                 2.5523
 IR Inten    --     4.6477                36.6898                93.4320

                    85                     86                     87
                     A                      A                      A
 Frequencies --  1340.0418              1345.2107              1347.7387
 Red. masses --     2.6378                 1.7186                 1.7266
 Frc consts  --     2.7908                 1.8324                 1.8478
 IR Inten    --    13.1507                27.4143                 9.8552

                    88                     89                     90
                     A                      A                      A
 Frequencies --  1352.6054              1357.9529              1370.7723
 Red. masses --     2.9386                 3.2399                 4.0843
 Frc consts  --     3.1676                 3.5200                 4.5216
 IR Inten    --     1.9703                 4.7091               191.5222

                    91                     92                     93
                     A                      A                      A
 Frequencies --  1386.5005              1410.6762              1450.9019
 Red. masses --     3.9279                 6.2482                 1.1079
 Frc consts  --     4.4489                 7.3258                 1.3742
 IR Inten    --    11.0715                 9.3246                 2.8138

                    94                     95                     96
                     A                      A                      A
 Frequencies --  1461.9606              1480.6172              1487.7278
 Red. masses --     7.0435                 1.1014                 7.0164
 Frc consts  --     8.8697                 1.4226                 9.1498
 IR Inten    --    14.4035                29.4337               793.3668

                    97                     98                     99
                     A                      A                      A
 Frequencies --  1528.4701              1530.0741              1568.3393
 Red. masses --     6.0716                 6.6095                 5.6470
 Frc consts  --     8.3573                 9.1168                 8.1837
 IR Inten    --    29.4388               821.3630                18.3141

                   100                    101                    102
                     A                      A                      A
 Frequencies --  1575.8812              1599.5368              1617.6858
 Red. masses --    10.7424                 6.8296                 7.6262
 Frc consts  --    15.7180                10.2952                11.7583
 IR Inten    --    52.8073                20.9967                38.9028

                   103                    104                    105
                     A                      A                      A
 Frequencies --  1629.8408              2219.8561              2229.8142
 Red. masses --     6.3605                 1.0415                 1.0402
 Frc consts  --     9.9547                 3.0238                 3.0472
 IR Inten    --    38.1613               108.9619               153.8956

                   106                    107                    108
                     A                      A                      A
 Frequencies --  3026.0235              3033.5806              3044.3157
 Red. masses --     1.0612                 1.0603                 1.0862
 Frc consts  --     5.7253                 5.7491                 5.9311
 IR Inten    --    25.1737                25.2806                 2.5821

                   109                    110                    111
                     A                      A                      A
 Frequencies --  3052.2007              3065.7975              3138.0906
 Red. masses --     1.0996                 1.0992                 1.0878
 Frc consts  --     6.0352                 6.0871                 6.3115
 IR Inten    --     6.6891                17.6003                32.8283

                   112                    113                    114
                     A                      A                      A
 Frequencies --  3192.0402              3213.1392              3217.6818
 Red. masses --     1.0943                 1.0911                 1.0926
 Frc consts  --     6.5695                 6.6367                 6.6648
 IR Inten    --    19.7013                 8.7258                 7.1967

                   115                    116                    117
                     A                      A                      A
 Frequencies --  3228.5410              3270.7854              3291.0463
 Red. masses --     1.0909                 1.0980                 1.0967
 Frc consts  --     6.6995                 6.9211                 6.9987
 IR Inten    --    19.4690                 0.8064                13.1946

 - Thermochemistry -
 -------------------
 Temperature   298.150 Kelvin.  Pressure   1.00000 Atm.
 Atom     1 has atomic number  6 and mass  12.00000

 Molecular mass:   422.01499 amu.
 Principal axes and moments of inertia in atomic units:
                           1         2         3
     Eigenvalues --  4790.96833********************
           X            0.99999  -0.00440   0.00090
           Y            0.00440   0.99999   0.00026
           Z           -0.00090  -0.00026   1.00000
 This molecule is an asymmetric top.
 Rotational symmetry number  1.
 Warning -- assumption of classical behavior for rotation
           may cause significant error
 Rotational temperatures (Kelvin)      0.01808     0.00308     0.00270
 Rotational constants (GHZ):           0.37670     0.06422     0.05624
 Zero-point vibrational energy     754036.3 (Joules/Mol)
                                  180.21900 (Kcal/Mol)
 Warning -- explicit consideration of  36 degrees of freedom as
           vibrations may cause significant error
 Vibrational temperatures:     18.97    28.76    48.46    51.41    64.94
          (Kelvin)             99.14   112.05   145.90   176.26   205.57
                              215.37   236.61   272.95   281.08   293.65
                              310.28   346.72   403.14   444.36   451.33
                              482.88   530.07   554.56   577.91   640.39
                              673.82   710.20   723.85   741.61   751.94
                              754.31   775.48   817.72   845.54   874.94
                              877.99   898.79   923.27   936.47   973.21
                              980.08  1003.92  1033.99  1043.98  1044.27
                             1061.13  1083.70  1094.31  1095.15  1145.25
                             1176.47  1192.72  1201.06  1220.62  1251.00
                             1267.28  1277.09  1299.35  1307.11  1328.32
                             1338.47  1370.17  1372.40  1392.74  1400.48
                             1415.82  1417.17  1437.26  1457.62  1476.88
                             1564.87  1589.40  1620.20  1627.91  1648.01
                             1657.09  1669.75  1715.76  1761.09  1765.52
                             1824.88  1849.89  1896.87  1921.86  1928.02
                             1935.46  1939.09  1946.10  1953.79  1972.23
                             1994.86  2029.65  2087.52  2103.43  2130.28
                             2140.51  2199.12  2201.43  2256.49  2267.34
                             2301.37  2327.49  2344.97  3193.87  3208.20
                             4353.77  4364.64  4380.09  4391.43  4410.99
                             4515.01  4592.63  4622.98  4629.52  4645.14
                             4705.92  4735.08

 Zero-point correction=                           0.287197 (Hartree/Particle)
 Thermal correction to Energy=                    0.310045
 Thermal correction to Enthalpy=                  0.310989
 Thermal correction to Gibbs Free Energy=         0.231588
 Sum of electronic and zero-point Energies=          -2435.222661
 Sum of electronic and thermal Energies=             -2435.199813
 Sum of electronic and thermal Enthalpies=           -2435.198869
 Sum of electronic and thermal Free Energies=        -2435.278270

                     E (Thermal)             CV                S
                      KCal/Mol        Cal/Mol-Kelvin    Cal/Mol-Kelvin
 Total                  194.556             89.297            167.113
 Electronic               0.000              0.000              0.000
 Translational            0.889              2.981             44.010
 Rotational               0.889              2.981             36.711
 Vibrational            192.779             83.335             86.392
 Vibration     1          0.593              1.987              7.462
 Vibration     2          0.593              1.986              6.636
 Vibration     3          0.594              1.983              5.600
 Vibration     4          0.594              1.982              5.483
 Vibration     5          0.595              1.979              5.020
 Vibration     6          0.598              1.969              4.184
 Vibration     7          0.599              1.964              3.944
 Vibration     8          0.604              1.948              3.427
 Vibration     9          0.610              1.930              3.060
 Vibration    10          0.616              1.910              2.765
 Vibration    11          0.618              1.903              2.676
 Vibration    12          0.623              1.886              2.498
 Vibration    13          0.633              1.854              2.231
 Vibration    14          0.636              1.846              2.176
 Vibration    15          0.640              1.834              2.096
 Vibration    16          0.645              1.817              1.995
 Vibration    17          0.658              1.778              1.796
 Vibration    18          0.680              1.710              1.532
 Vibration    19          0.698              1.657              1.369
 Vibration    20          0.702              1.648              1.343
 Vibration    21          0.717              1.604              1.233
 Vibration    22          0.741              1.537              1.086
 Vibration    23          0.754              1.501              1.018
 Vibration    24          0.767              1.467              0.957
 Vibration    25          0.804              1.372              0.811
 Vibration    26          0.826              1.320              0.742
 Vibration    27          0.849              1.264              0.674
 Vibration    28          0.858              1.243              0.650
 Vibration    29          0.870              1.216              0.621
 Vibration    30          0.878              1.200              0.604
 Vibration    31          0.879              1.196              0.600
 Vibration    32          0.894              1.164              0.567
 Vibration    33          0.924              1.100              0.507
 Vibration    34          0.945              1.058              0.471
 Vibration    35          0.967              1.015              0.436
 Vibration    36          0.969              1.010              0.432

 Optimization completed.
    -- Stationary point found.
 Normal termination of Gaussian 09 at Sun Dec 29 20:18:09 2013.
